                         Program Version 4.2.1 -  RELEASE  -
|  1> ! UKS B3LYP def2-SV(P) def2/J D3BJ Opt
|  2> %scf Convergence VeryTight
|  3> SmearTemp 2000
|  4> maxiter 500
|  5> end
|  6> *xyz 0 1
|  7> C 3.046219 0.341643 0.183432
|  8> C 1.808793 -0.531473 0.357131
|  9> C 0.658509 0.253477 -0.201923
| 10> C -0.617187 -0.532298 -0.314275
| 11> C -1.748471 0.444904 -0.045016
| 12> C -3.104683 -0.192114 -0.1283
| 13> H 3.071917 0.61137 -0.896034
| 14> H 3.970591 -0.161638 0.491713
| 15> H 2.830419 1.2797 0.723643
| 16> H 1.955535 -1.494832 -0.151094
| 17> H 1.659878 -0.663933 1.452592
| 18> H 0.948173 0.611384 -1.218788
| 19> H 0.523924 1.141014 0.463567
| 20> H -0.656895 -1.423752 0.32705
| 21> H -0.724396 -0.881988 -1.372653
| 22> H -1.566004 0.862212 0.974909
| 23> H -1.652011 1.23799 -0.82135
| 24> H -3.120425 -1.242335 0.204646
| 25> H -3.794451 0.438835 0.488613
| 26> H -3.489434 -0.098168 -1.16877
| 27> *
| 28>
| 29>                          ****END OF INPUT****
 Total Charge           Charge          ....    0
 Multiplicity           Mult            ....    1
 Number of Electrons    NEL             ....   50
Dispersion correction           -0.024711104
FINAL SINGLE POINT ENERGY      -236.700950984920
Dispersion correction            ... done
Dispersion correction           -0.024008563
FINAL SINGLE POINT ENERGY      -236.714361604230
Dispersion correction            ... done
Dispersion correction           -0.023867406
FINAL SINGLE POINT ENERGY      -236.718052618385
Dispersion correction            ... done
FINAL SINGLE POINT ENERGY      -236.719879531491
FINAL SINGLE POINT ENERGY      -236.720896997133
FINAL SINGLE POINT ENERGY      -236.721758486146
FINAL SINGLE POINT ENERGY      -236.722583235455
FINAL SINGLE POINT ENERGY      -236.723263199308
FINAL SINGLE POINT ENERGY      -236.723719979460
FINAL SINGLE POINT ENERGY      -236.723968378446
FINAL SINGLE POINT ENERGY      -236.724021747026
Dispersion correction            ... done
Dispersion correction           -0.023943386
FINAL SINGLE POINT ENERGY      -236.724030480043
Dispersion correction            ... done
Dispersion correction           -0.023943958
FINAL SINGLE POINT ENERGY      -236.724039596415
Dispersion correction            ... done
                    ***********************HURRAY********************

CARTESIAN COORDINATES (ANGSTROEM)
---------------------------------
  C      3.212066    0.263392    0.135426
  C      1.896108   -0.515268    0.090458
  C      0.661161    0.385236   -0.009956
  C     -0.661008   -0.384982   -0.056502
  C     -1.896230    0.515337   -0.155757
  C     -3.212021   -0.263643   -0.199928
  H      3.343929    0.879001   -0.774299
  H      4.082086   -0.413415    0.211577
  H      3.242061    0.947530    1.004538
  H      1.907766   -1.213665   -0.769749
  H      1.810032   -1.149018    0.995153
  H      0.746401    1.021266   -0.914220
  H      0.647807    1.083373    0.851742
  H     -0.745553   -1.020740    0.848027
  H     -0.648159   -1.083412   -0.917954
  H     -1.907468    1.213126    0.704963
  H     -1.810836    1.149833   -1.059982
  H     -3.343305   -0.879002    0.710035
  H     -4.082185    0.413042   -0.275629
  H     -3.242651   -0.947994   -1.068851

 Multiplicity           Mult            ....    1
 Number of Electrons    NEL             ....   50
 Basis Dimension        Dim             ....  112

ORBITAL ENERGIES
----------------
                 SPIN UP ORBITALS
  NO   OCC          E(Eh)            E(eV)
   0   1.0000     -10.172342      -276.8035
   1   1.0000     -10.172332      -276.8032
   2   1.0000     -10.170257      -276.7468
   3   1.0000     -10.170192      -276.7450
   4   1.0000     -10.166198      -276.6363
   5   1.0000     -10.166195      -276.6362
   6   1.0000      -0.793537       -21.5933
   7   1.0000      -0.755307       -20.5529
   8   1.0000      -0.696366       -18.9491
   9   1.0000      -0.626303       -17.0426
  10   1.0000      -0.570379       -15.5208
  11   1.0000      -0.565028       -15.3752
  12   1.0000      -0.474514       -12.9122
  13   1.0000      -0.441007       -12.0004
  14   1.0000      -0.432195       -11.7606
  15   1.0000      -0.417951       -11.3730
  16   1.0000      -0.395046       -10.7498
  17   1.0000      -0.379217       -10.3190
  18   1.0000      -0.375568       -10.2197
  19   1.0000      -0.351014        -9.5516
  20   1.0000      -0.338798        -9.2192
  21   1.0000      -0.323988        -8.8162
  22   1.0000      -0.323289        -8.7971
  23   1.0000      -0.317347        -8.6355
  24   1.0000      -0.310157        -8.4398
  25   0.0000       0.057214         1.5569
  26   0.0000       0.068474         1.8633
  27   0.0000       0.083799         2.2803
  28   0.0000       0.088958         2.4207
  29   0.0000       0.100101         2.7239

                 SPIN DOWN ORBITALS
  NO   OCC          E(Eh)            E(eV)
   0   1.0000     -10.172342      -276.8035
   1   1.0000     -10.172332      -276.8032
   2   1.0000     -10.170257      -276.7468
   3   1.0000     -10.170192      -276.7450
   4   1.0000     -10.166198      -276.6363
   5   1.0000     -10.166195      -276.6362
   6   1.0000      -0.793537       -21.5933
   7   1.0000      -0.755307       -20.5529
   8   1.0000      -0.696366       -18.9491
   9   1.0000      -0.626303       -17.0426
  10   1.0000      -0.570379       -15.5208
  11   1.0000      -0.565028       -15.3752
  12   1.0000      -0.474514       -12.9122
  13   1.0000      -0.441007       -12.0004
  14   1.0000      -0.432195       -11.7606
  15   1.0000      -0.417951       -11.3730
  16   1.0000      -0.395046       -10.7498
  17   1.0000      -0.379217       -10.3190
  18   1.0000      -0.375568       -10.2197
  19   1.0000      -0.351014        -9.5516
  20   1.0000      -0.338798        -9.2192
  21   1.0000      -0.323988        -8.8162
  22   1.0000      -0.323289        -8.7971
  23   1.0000      -0.317347        -8.6355
  24   1.0000      -0.310157        -8.4398
  25   0.0000       0.057214         1.5569
  26   0.0000       0.068474         1.8633
  27   0.0000       0.083799         2.2803
  28   0.0000       0.088958         2.4207
  29   0.0000       0.100101         2.7239

LOEWDIN ATOMIC CHARGES AND SPIN POPULATIONS
-------------------------------------------
   0 C :   -0.318660    0.000000
   1 C :   -0.217383    0.000000
   2 C :   -0.211000    0.000000
   3 C :   -0.211003    0.000000
   4 C :   -0.217378    0.000000
   5 C :   -0.318660    0.000000
   6 H :    0.108496    0.000000
   7 H :    0.110835    0.000000
   8 H :    0.108564    0.000000
   9 H :    0.105628    0.000000
  10 H :    0.105187    0.000000
  11 H :    0.104037    0.000000
  12 H :    0.104291    0.000000
  13 H :    0.104042    0.000000
  14 H :    0.104288    0.000000
  15 H :    0.105630    0.000000
  16 H :    0.105186    0.000000
  17 H :    0.108503    0.000000
  18 H :    0.110832    0.000000
  19 H :    0.108564    0.000000

  Mayer bond orders larger than 0.100000
B(  0-C ,  1-C ) :   1.1326 B(  0-C ,  6-H ) :   0.9602 B(  0-C ,  7-H ) :   0.9598
B(  0-C ,  8-H ) :   0.9603 B(  1-C ,  2-C ) :   1.1160 B(  1-C ,  9-H ) :   0.9349
B(  1-C , 10-H ) :   0.9346 B(  2-C ,  3-C ) :   1.1172 B(  2-C , 11-H ) :   0.9302
B(  2-C , 12-H ) :   0.9303 B(  3-C ,  4-C ) :   1.1160 B(  3-C , 13-H ) :   0.9302
B(  3-C , 14-H ) :   0.9304 B(  4-C ,  5-C ) :   1.1326 B(  4-C , 15-H ) :   0.9348
B(  4-C , 16-H ) :   0.9346 B(  5-C , 17-H ) :   0.9602 B(  5-C , 18-H ) :   0.9598
B(  5-C , 19-H ) :   0.9603

Dispersion correction           -0.023944314
FINAL SINGLE POINT ENERGY      -236.724039861073

DIPOLE MOMENT
-------------
                                X             Y             Z
Electronic contribution:      0.00015       0.00019      -0.00246
Nuclear contribution   :     -0.00020      -0.00019       0.00258
                        -----------------------------------------
Total Dipole Moment    :     -0.00005       0.00000       0.00012
                        -----------------------------------------
Magnitude (a.u.)       :      0.00013
Magnitude (Debye)      :      0.00033

Rotational constants in cm-1:     0.483348     0.037559     0.036279
Rotational constants in MHz : 14490.418142  1126.003152  1087.605321

                             ****ORCA TERMINATED NORMALLY****
TOTAL RUN TIME: 0 days 1 hours 16 minutes 51 seconds 439 msec
