                         Program Version 4.2.1 -  RELEASE  -
|  1> ! UKS B3LYP def2-SV(P) def2/J D3BJ Opt
|  2> %scf Convergence VeryTight
|  3> SmearTemp 2000
|  4> maxiter 500
|  5> end
|  6> *xyz 0 1
|  7> C -4.58222 0.591507 0.615133
|  8> C -4.075553 -0.832754 0.748502
|  9> C -2.893188 -1.069028 -0.155279
| 10> C -1.768179 -0.106348 0.100227
| 11> C -0.609132 -0.453605 -0.796338
| 12> C 0.518858 0.535736 -0.721412
| 13> C 1.67399 0.030581 0.135944
| 14> C 2.821875 0.973189 -0.101
| 15> C 4.046102 0.64061 0.706035
| 16> C 4.856324 -0.482871 0.127378
| 17> H -5.643545 0.6027 0.97032
| 18> H -4.581708 0.934186 -0.432682
| 19> H -4.007009 1.223791 1.3044
| 20> H -4.899258 -1.49216 0.406459
| 21> H -3.87012 -1.040546 1.809029
| 22> H -3.247488 -0.897084 -1.193582
| 23> H -2.60548 -2.126519 -0.047559
| 24> H -2.121583 0.905582 -0.211387
| 25> H -1.475948 -0.058535 1.168084
| 26> H -0.252099 -1.470528 -0.532224
| 27> H -0.992375 -0.441386 -1.843811
| 28> H 0.970574 0.747858 -1.72389
| 29> H 0.227261 1.511655 -0.288475
| 30> H 1.913278 -1.021088 -0.070395
| 31> H 1.335581 0.142415 1.196748
| 32> H 3.041901 1.050847 -1.180646
| 33> H 2.479221 1.987663 0.215019
| 34> H 3.751438 0.447474 1.749525
| 35> H 4.687892 1.558243 0.695475
| 36> H 5.73032 -0.131187 -0.470226
| 37> H 4.272192 -1.201997 -0.467846
| 38> H 5.298078 -1.058402 0.974581
| 39> *
| 40>
| 41>                          ****END OF INPUT****
 Total Charge           Charge          ....    0
 Multiplicity           Mult            ....    1
 Number of Electrons    NEL             ....   82
Dispersion correction           -0.045563859
FINAL SINGLE POINT ENERGY      -393.717760476155
Dispersion correction            ... done
Dispersion correction           -0.044342623
FINAL SINGLE POINT ENERGY      -393.734342093711
Dispersion correction            ... done
Dispersion correction           -0.044152784
FINAL SINGLE POINT ENERGY      -393.739270359151
Dispersion correction            ... done
FINAL SINGLE POINT ENERGY      -393.741472065358
FINAL SINGLE POINT ENERGY      -393.742724981326
FINAL SINGLE POINT ENERGY      -393.743784237026
FINAL SINGLE POINT ENERGY      -393.744816795139
FINAL SINGLE POINT ENERGY      -393.745788423952
FINAL SINGLE POINT ENERGY      -393.746619638080
FINAL SINGLE POINT ENERGY      -393.747275781208
FINAL SINGLE POINT ENERGY      -393.747742370848
FINAL SINGLE POINT ENERGY      -393.748031331616
FINAL SINGLE POINT ENERGY      -393.748185833678
FINAL SINGLE POINT ENERGY      -393.748244891063
FINAL SINGLE POINT ENERGY      -393.748286747450
Dispersion correction            ... done
Dispersion correction           -0.044715587
FINAL SINGLE POINT ENERGY      -393.748316608223
Dispersion correction            ... done
Dispersion correction           -0.044719187
FINAL SINGLE POINT ENERGY      -393.748322228290
Dispersion correction            ... done
                    ***********************HURRAY********************

CARTESIAN COORDINATES (ANGSTROEM)
---------------------------------
  C     -4.343232    0.412413    1.254926
  C     -3.792761   -0.966819    0.878971
  C     -2.881252   -0.971001   -0.356359
  C     -1.583865   -0.171255   -0.195793
  C     -0.662549   -0.267090   -1.416924
  C      0.595197    0.607922   -1.340884
  C      1.574084    0.229529   -0.223457
  C      2.859482    1.064024   -0.244530
  C      3.830117    0.779995    0.910402
  C      4.390050   -0.645256    0.931333
  H     -5.042568    0.343630    2.108132
  H     -4.891293    0.865431    0.406728
  H     -3.538963    1.113275    1.542299
  H     -4.639895   -1.654525    0.696359
  H     -3.237912   -1.389042    1.740064
  H     -3.445193   -0.579932   -1.227158
  H     -2.624146   -2.018595   -0.606365
  H     -1.816841    0.894572   -0.009071
  H     -1.053431   -0.531314    0.706393
  H     -0.364872   -1.324002   -1.566809
  H     -1.239115    0.016426   -2.318551
  H      1.126658    0.553645   -2.310798
  H      0.295188    1.667988   -1.218195
  H      1.818528   -0.846444   -0.313481
  H      1.085334    0.350398    0.762575
  H      3.383534    0.902349   -1.208538
  H      2.586372    2.136924   -0.224353
  H      3.320625    0.988785    1.871938
  H      4.671025    1.496183    0.849523
  H      4.881536   -0.893147   -0.028789
  H      3.599249   -1.397241    1.103376
  H      5.140908   -0.767829    1.733142

 Multiplicity           Mult            ....    1
 Number of Electrons    NEL             ....   82
 Basis Dimension        Dim             ....  184

ORBITAL ENERGIES
----------------
                 SPIN UP ORBITALS
  NO   OCC          E(Eh)            E(eV)
   0   1.0000     -10.172078      -276.7963
   1   1.0000     -10.171945      -276.7927
   2   1.0000     -10.169860      -276.7360
   3   1.0000     -10.169814      -276.7347
   4   1.0000     -10.169629      -276.7297
   5   1.0000     -10.169510      -276.7264
   6   1.0000     -10.168851      -276.7085
   7   1.0000     -10.168501      -276.6990
   8   1.0000     -10.165771      -276.6247
   9   1.0000     -10.165643      -276.6212
  10   1.0000      -0.801567       -21.8117
  11   1.0000      -0.784415       -21.3450
  12   1.0000      -0.757344       -20.6084
  13   1.0000      -0.718952       -19.5637
  14   1.0000      -0.679669       -18.4947
  15   1.0000      -0.639714       -17.4075
  16   1.0000      -0.610068       -16.6008
  17   1.0000      -0.564060       -15.3489
  18   1.0000      -0.557837       -15.1795
  19   1.0000      -0.549727       -14.9588
  20   1.0000      -0.471422       -12.8280
  21   1.0000      -0.458970       -12.4892
  22   1.0000      -0.448526       -12.2050
  23   1.0000      -0.435522       -11.8511
  24   1.0000      -0.429405       -11.6847
  25   1.0000      -0.429196       -11.6790
  26   1.0000      -0.397605       -10.8194
  27   1.0000      -0.393942       -10.7197
  28   1.0000      -0.391936       -10.6651
  29   1.0000      -0.368753       -10.0343
  30   1.0000      -0.367608       -10.0031
  31   1.0000      -0.354819        -9.6551
  32   1.0000      -0.348175        -9.4743
  33   1.0000      -0.337777        -9.1914
  34   1.0000      -0.331109        -9.0099
  35   1.0000      -0.322098        -8.7647
  36   1.0000      -0.318324        -8.6620
  37   1.0000      -0.316401        -8.6097
  38   1.0000      -0.313082        -8.5194
  39   1.0000      -0.304823        -8.2947
  40   1.0000      -0.300421        -8.1749
  41   0.0000       0.056812         1.5459
  42   0.0000       0.062355         1.6968
  43   0.0000       0.073767         2.0073
  44   0.0000       0.076761         2.0888
  45   0.0000       0.082505         2.2451

                 SPIN DOWN ORBITALS
  NO   OCC          E(Eh)            E(eV)
   0   1.0000     -10.172078      -276.7963
   1   1.0000     -10.171945      -276.7927
   2   1.0000     -10.169860      -276.7360
   3   1.0000     -10.169814      -276.7347
   4   1.0000     -10.169629      -276.7297
   5   1.0000     -10.169510      -276.7264
   6   1.0000     -10.168851      -276.7085
   7   1.0000     -10.168501      -276.6990
   8   1.0000     -10.165771      -276.6247
   9   1.0000     -10.165643      -276.6212
  10   1.0000      -0.801567       -21.8117
  11   1.0000      -0.784415       -21.3450
  12   1.0000      -0.757344       -20.6084
  13   1.0000      -0.718952       -19.5637
  14   1.0000      -0.679669       -18.4947
  15   1.0000      -0.639714       -17.4075
  16   1.0000      -0.610068       -16.6008
  17   1.0000      -0.564060       -15.3489
  18   1.0000      -0.557837       -15.1795
  19   1.0000      -0.549727       -14.9588
  20   1.0000      -0.471422       -12.8280
  21   1.0000      -0.458970       -12.4892
  22   1.0000      -0.448526       -12.2050
  23   1.0000      -0.435522       -11.8511
  24   1.0000      -0.429405       -11.6847
  25   1.0000      -0.429196       -11.6790
  26   1.0000      -0.397605       -10.8194
  27   1.0000      -0.393942       -10.7197
  28   1.0000      -0.391936       -10.6651
  29   1.0000      -0.368753       -10.0343
  30   1.0000      -0.367608       -10.0031
  31   1.0000      -0.354819        -9.6551
  32   1.0000      -0.348175        -9.4743
  33   1.0000      -0.337777        -9.1914
  34   1.0000      -0.331109        -9.0099
  35   1.0000      -0.322098        -8.7647
  36   1.0000      -0.318324        -8.6620
  37   1.0000      -0.316401        -8.6097
  38   1.0000      -0.313082        -8.5194
  39   1.0000      -0.304823        -8.2947
  40   1.0000      -0.300421        -8.1749
  41   0.0000       0.056812         1.5459
  42   0.0000       0.062355         1.6968
  43   0.0000       0.073767         2.0073
  44   0.0000       0.076761         2.0888
  45   0.0000       0.082505         2.2451

LOEWDIN ATOMIC CHARGES AND SPIN POPULATIONS
-------------------------------------------
   0 C :   -0.324321    0.000000
   1 C :   -0.216649    0.000000
   2 C :   -0.209785    0.000000
   3 C :   -0.215154    0.000000
   4 C :   -0.207308    0.000000
   5 C :   -0.207886    0.000000
   6 C :   -0.215284    0.000000
   7 C :   -0.210172    0.000000
   8 C :   -0.216290    0.000000
   9 C :   -0.324182    0.000000
  10 H :    0.111881    0.000000
  11 H :    0.108773    0.000000
  12 H :    0.109551    0.000000
  13 H :    0.107729    0.000000
  14 H :    0.105060    0.000000
  15 H :    0.103256    0.000000
  16 H :    0.106106    0.000000
  17 H :    0.105494    0.000000
  18 H :    0.105705    0.000000
  19 H :    0.103688    0.000000
  20 H :    0.106210    0.000000
  21 H :    0.106030    0.000000
  22 H :    0.103931    0.000000
  23 H :    0.105735    0.000000
  24 H :    0.105528    0.000000
  25 H :    0.103175    0.000000
  26 H :    0.106380    0.000000
  27 H :    0.104515    0.000000
  28 H :    0.108010    0.000000
  29 H :    0.108665    0.000000
  30 H :    0.109857    0.000000
  31 H :    0.111752    0.000000

  Mayer bond orders larger than 0.100000
B(  0-C ,  1-C ) :   1.1301 B(  0-C , 10-H ) :   0.9583 B(  0-C , 11-H ) :   0.9605
B(  0-C , 12-H ) :   0.9558 B(  1-C ,  2-C ) :   1.1118 B(  1-C , 13-H ) :   0.9355
B(  1-C , 14-H ) :   0.9339 B(  2-C ,  3-C ) :   1.1136 B(  2-C , 15-H ) :   0.9290
B(  2-C , 16-H ) :   0.9286 B(  3-C ,  4-C ) :   1.1186 B(  3-C , 17-H ) :   0.9259
B(  3-C , 18-H ) :   0.9262 B(  4-C ,  5-C ) :   1.1129 B(  4-C , 19-H ) :   0.9237
B(  4-C , 20-H ) :   0.9284 B(  5-C ,  6-C ) :   1.1177 B(  5-C , 21-H ) :   0.9290
B(  5-C , 22-H ) :   0.9239 B(  6-C ,  7-C ) :   1.1134 B(  6-C , 23-H ) :   0.9253
B(  6-C , 24-H ) :   0.9268 B(  7-C ,  8-C ) :   1.1107 B(  7-C , 25-H ) :   0.9297
B(  7-C , 26-H ) :   0.9286 B(  8-C ,  9-C ) :   1.1284 B(  8-C , 27-H ) :   0.9339
B(  8-C , 28-H ) :   0.9353 B(  9-C , 29-H ) :   0.9615 B(  9-C , 30-H ) :   0.9565
B(  9-C , 31-H ) :   0.9588

Dispersion correction           -0.044720468
FINAL SINGLE POINT ENERGY      -393.748324656769

DIPOLE MOMENT
-------------
                                X             Y             Z
Electronic contribution:     -0.03436       0.17818      -1.60723
Nuclear contribution   :      0.03732      -0.18364       1.62630
                        -----------------------------------------
Total Dipole Moment    :      0.00296      -0.00546       0.01907
                        -----------------------------------------
Magnitude (a.u.)       :      0.02005
Magnitude (Debye)      :      0.05097

Rotational constants in cm-1:     0.080116     0.012030     0.011515
Rotational constants in MHz :  2401.807297   360.661103   345.208968

                             ****ORCA TERMINATED NORMALLY****
TOTAL RUN TIME: 0 days 1 hours 54 minutes 41 seconds 662 msec
