                         Program Version 4.2.1 -  RELEASE  -
|  1> ! UKS B3LYP def2-SV(P) def2/J D3BJ Opt
|  2> %scf Convergence VeryTight
|  3> SmearTemp 2000
|  4> maxiter 500
|  5> end
|  6> *xyz 0 1
|  7> C -3.802273 1.33239 0.156888
|  8> C -4.048994 -0.089034 -0.262073
|  9> C -3.12148 -1.075268 0.395266
| 10> C -1.877851 -1.350586 -0.40877
| 11> C -0.880539 -0.265247 -0.069112
| 12> C 0.539426 -0.817957 -0.105728
| 13> C 1.430128 0.207403 0.551661
| 14> C 2.568737 0.625298 -0.337728
| 15> C 3.81404 -0.105186 0.08028
| 16> C 5.03628 0.766929 -0.172622
| 17> H -4.703484 1.798514 0.629877
| 18> H -3.590392 1.958984 -0.743724
| 19> H -2.983107 1.447649 0.880566
| 20> H -5.084123 -0.353825 0.072337
| 21> H -4.020887 -0.164543 -1.374999
| 22> H -2.773335 -0.692635 1.388146
| 23> H -3.673267 -2.020749 0.627173
| 24> H -1.484304 -2.358104 -0.12954
| 25> H -2.071519 -1.401763 -1.502193
| 26> H -1.04888 0.026938 0.998403
| 27> H -1.022067 0.586393 -0.747264
| 28> H 0.517628 -1.735392 0.534811
| 29> H 0.817768 -1.024276 -1.148993
| 30> H 1.845153 -0.15931 1.524559
| 31> H 0.874265 1.142717 0.815234
| 32> H 2.373489 0.402671 -1.413262
| 33> H 2.7816 1.715164 -0.298394
| 34> H 3.784317 -0.314246 1.168944
| 35> H 3.911876 -1.05914 -0.481499
| 36> H 5.03746 1.102078 -1.225193
| 37> H 4.896022 1.669887 0.472599
| 38> H 5.958313 0.204244 0.08053
| 39> *
| 40>
| 41>                          ****END OF INPUT****
 Total Charge           Charge          ....    0
 Multiplicity           Mult            ....    1
 Number of Electrons    NEL             ....   82
Dispersion correction           -0.046284931
FINAL SINGLE POINT ENERGY      -393.693877086325
Dispersion correction            ... done
Dispersion correction           -0.044510766
FINAL SINGLE POINT ENERGY      -393.717108163359
Dispersion correction            ... done
Dispersion correction           -0.044156644
FINAL SINGLE POINT ENERGY      -393.723607391482
Dispersion correction            ... done
FINAL SINGLE POINT ENERGY      -393.726882794211
FINAL SINGLE POINT ENERGY      -393.729081445738
FINAL SINGLE POINT ENERGY      -393.730924216170
FINAL SINGLE POINT ENERGY      -393.732618140827
FINAL SINGLE POINT ENERGY      -393.734170236064
FINAL SINGLE POINT ENERGY      -393.735515882547
FINAL SINGLE POINT ENERGY      -393.736625789786
FINAL SINGLE POINT ENERGY      -393.745704135566
FINAL SINGLE POINT ENERGY      -393.745754379118
FINAL SINGLE POINT ENERGY      -393.745780268730
FINAL SINGLE POINT ENERGY      -393.745794877081
FINAL SINGLE POINT ENERGY      -393.745841582519
FINAL SINGLE POINT ENERGY      -393.745859736161
FINAL SINGLE POINT ENERGY      -393.745875565789
Dispersion correction            ... done
Dispersion correction           -0.044955104
FINAL SINGLE POINT ENERGY      -393.745881419050
Dispersion correction            ... done
Dispersion correction           -0.044964017
FINAL SINGLE POINT ENERGY      -393.745883299740
Dispersion correction            ... done
                    ***********************HURRAY********************

CARTESIAN COORDINATES (ANGSTROEM)
---------------------------------
  C     -4.111395    0.923993    0.777253
  C     -4.107406   -0.187127   -0.278460
  C     -3.179226   -1.378923    0.029275
  C     -1.733322   -1.259878   -0.476358
  C     -0.905121   -0.103191    0.093386
  C      0.565893   -0.151017   -0.331496
  C      1.395244    1.014196    0.219262
  C      2.856451    1.041675   -0.248841
  C      3.709293   -0.138946    0.230420
  C      5.173216   -0.034924   -0.202595
  H     -4.818020    1.728825    0.503990
  H     -3.117227    1.382414    0.908517
  H     -4.423025    0.527477    1.761475
  H     -5.142892   -0.561550   -0.383479
  H     -3.842655    0.234897   -1.268190
  H     -3.172735   -1.562425    1.122341
  H     -3.610150   -2.289838   -0.425419
  H     -1.210720   -2.210281   -0.249715
  H     -1.745740   -1.179828   -1.581650
  H     -0.967544   -0.113359    1.199937
  H     -1.336430    0.862406   -0.229009
  H      1.002439   -1.113612   -0.003717
  H      0.627349   -0.149718   -1.438526
  H      1.366229    0.990267    1.327080
  H      0.910474    1.964770   -0.077107
  H      2.884287    1.084215   -1.356400
  H      3.324719    1.981328    0.103801
  H      3.652424   -0.200702    1.335190
  H      3.284821   -1.086625   -0.150472
  H      5.261987   -0.005258   -1.305069
  H      5.642780    0.885610    0.192116
  H      5.766003   -0.894874    0.158641

 Multiplicity           Mult            ....    1
 Number of Electrons    NEL             ....   82
 Basis Dimension        Dim             ....  184

ORBITAL ENERGIES
----------------
                 SPIN UP ORBITALS
  NO   OCC          E(Eh)            E(eV)
   0   1.0000     -10.171605      -276.7834
   1   1.0000     -10.171466      -276.7797
   2   1.0000     -10.170149      -276.7438
   3   1.0000     -10.170082      -276.7420
   4   1.0000     -10.170022      -276.7404
   5   1.0000     -10.169598      -276.7288
   6   1.0000     -10.169374      -276.7227
   7   1.0000     -10.169298      -276.7207
   8   1.0000     -10.166103      -276.6337
   9   1.0000     -10.163787      -276.5707
  10   1.0000      -0.801226       -21.8025
  11   1.0000      -0.783924       -21.3317
  12   1.0000      -0.755387       -20.5551
  13   1.0000      -0.720695       -19.6111
  14   1.0000      -0.683663       -18.6034
  15   1.0000      -0.637095       -17.3362
  16   1.0000      -0.599452       -16.3119
  17   1.0000      -0.579054       -15.7568
  18   1.0000      -0.555049       -15.1036
  19   1.0000      -0.548421       -14.9233
  20   1.0000      -0.473337       -12.8801
  21   1.0000      -0.457311       -12.4441
  22   1.0000      -0.449632       -12.2351
  23   1.0000      -0.440042       -11.9741
  24   1.0000      -0.422957       -11.5092
  25   1.0000      -0.420108       -11.4317
  26   1.0000      -0.407509       -11.0889
  27   1.0000      -0.395660       -10.7665
  28   1.0000      -0.381859       -10.3909
  29   1.0000      -0.375882       -10.2283
  30   1.0000      -0.364937        -9.9304
  31   1.0000      -0.353819        -9.6279
  32   1.0000      -0.348212        -9.4753
  33   1.0000      -0.339682        -9.2432
  34   1.0000      -0.331247        -9.0137
  35   1.0000      -0.325379        -8.8540
  36   1.0000      -0.318582        -8.6690
  37   1.0000      -0.315347        -8.5810
  38   1.0000      -0.310779        -8.4567
  39   1.0000      -0.305387        -8.3100
  40   1.0000      -0.297683        -8.1004
  41   0.0000       0.057731         1.5709
  42   0.0000       0.062653         1.7049
  43   0.0000       0.073059         1.9880
  44   0.0000       0.078087         2.1249
  45   0.0000       0.079617         2.1665

                 SPIN DOWN ORBITALS
  NO   OCC          E(Eh)            E(eV)
   0   1.0000     -10.171605      -276.7834
   1   1.0000     -10.171466      -276.7797
   2   1.0000     -10.170149      -276.7438
   3   1.0000     -10.170082      -276.7420
   4   1.0000     -10.170022      -276.7404
   5   1.0000     -10.169598      -276.7288
   6   1.0000     -10.169374      -276.7227
   7   1.0000     -10.169298      -276.7207
   8   1.0000     -10.166103      -276.6337
   9   1.0000     -10.163787      -276.5707
  10   1.0000      -0.801226       -21.8025
  11   1.0000      -0.783924       -21.3317
  12   1.0000      -0.755387       -20.5551
  13   1.0000      -0.720695       -19.6111
  14   1.0000      -0.683663       -18.6034
  15   1.0000      -0.637095       -17.3362
  16   1.0000      -0.599452       -16.3119
  17   1.0000      -0.579054       -15.7568
  18   1.0000      -0.555049       -15.1036
  19   1.0000      -0.548421       -14.9233
  20   1.0000      -0.473337       -12.8801
  21   1.0000      -0.457311       -12.4441
  22   1.0000      -0.449632       -12.2351
  23   1.0000      -0.440042       -11.9741
  24   1.0000      -0.422957       -11.5092
  25   1.0000      -0.420108       -11.4317
  26   1.0000      -0.407509       -11.0889
  27   1.0000      -0.395660       -10.7665
  28   1.0000      -0.381859       -10.3909
  29   1.0000      -0.375882       -10.2283
  30   1.0000      -0.364937        -9.9304
  31   1.0000      -0.353819        -9.6279
  32   1.0000      -0.348212        -9.4753
  33   1.0000      -0.339682        -9.2432
  34   1.0000      -0.331247        -9.0137
  35   1.0000      -0.325379        -8.8540
  36   1.0000      -0.318582        -8.6690
  37   1.0000      -0.315347        -8.5810
  38   1.0000      -0.310779        -8.4567
  39   1.0000      -0.305387        -8.3100
  40   1.0000      -0.297683        -8.1004
  41   0.0000       0.057731         1.5709
  42   0.0000       0.062653         1.7049
  43   0.0000       0.073059         1.9880
  44   0.0000       0.078087         2.1249
  45   0.0000       0.079617         2.1665

LOEWDIN ATOMIC CHARGES AND SPIN POPULATIONS
-------------------------------------------
   0 C :   -0.322186    0.000000
   1 C :   -0.218196    0.000000
   2 C :   -0.210978    0.000000
   3 C :   -0.208879    0.000000
   4 C :   -0.214026    0.000000
   5 C :   -0.211498    0.000000
   6 C :   -0.209218    0.000000
   7 C :   -0.210491    0.000000
   8 C :   -0.221031    0.000000
   9 C :   -0.318752    0.000000
  10 H :    0.110174    0.000000
  11 H :    0.109202    0.000000
  12 H :    0.107614    0.000000
  13 H :    0.108070    0.000000
  14 H :    0.104619    0.000000
  15 H :    0.104684    0.000000
  16 H :    0.108132    0.000000
  17 H :    0.105153    0.000000
  18 H :    0.104906    0.000000
  19 H :    0.105342    0.000000
  20 H :    0.106120    0.000000
  21 H :    0.104534    0.000000
  22 H :    0.105524    0.000000
  23 H :    0.105268    0.000000
  24 H :    0.105447    0.000000
  25 H :    0.104901    0.000000
  26 H :    0.105295    0.000000
  27 H :    0.106284    0.000000
  28 H :    0.105898    0.000000
  29 H :    0.109339    0.000000
  30 H :    0.108077    0.000000
  31 H :    0.110675    0.000000

  Mayer bond orders larger than 0.100000
B(  0-C ,  1-C ) :   1.1376 B(  0-C , 10-H ) :   0.9582 B(  0-C , 11-H ) :   0.9533
B(  0-C , 12-H ) :   0.9584 B(  1-C ,  2-C ) :   1.0829 B(  1-C , 13-H ) :   0.9382
B(  1-C , 14-H ) :   0.9387 B(  2-C ,  3-C ) :   1.1270 B(  2-C , 15-H ) :   0.9314
B(  2-C , 16-H ) :   0.9304 B(  3-C ,  4-C ) :   1.1222 B(  3-C , 17-H ) :   0.9279
B(  3-C , 18-H ) :   0.9250 B(  4-C ,  5-C ) :   1.1165 B(  4-C , 19-H ) :   0.9277
B(  4-C , 20-H ) :   0.9161 B(  5-C ,  6-C ) :   1.1169 B(  5-C , 21-H ) :   0.9229
B(  5-C , 22-H ) :   0.9283 B(  6-C ,  7-C ) :   1.1117 B(  6-C , 23-H ) :   0.9256
B(  6-C , 24-H ) :   0.9278 B(  7-C ,  8-C ) :   1.1126 B(  7-C , 25-H ) :   0.9288
B(  7-C , 26-H ) :   0.9312 B(  8-C ,  9-C ) :   1.1326 B(  8-C , 27-H ) :   0.9366
B(  8-C , 28-H ) :   0.9305 B(  9-C , 29-H ) :   0.9601 B(  9-C , 30-H ) :   0.9598
B(  9-C , 31-H ) :   0.9598

Dispersion correction           -0.044968086
FINAL SINGLE POINT ENERGY      -393.745883458341

DIPOLE MOMENT
-------------
                                X             Y             Z
Electronic contribution:     -0.86618      -0.71524      -0.45395
Nuclear contribution   :      0.85245       0.69474       0.44213
                        -----------------------------------------
Total Dipole Moment    :     -0.01373      -0.02049      -0.01182
                        -----------------------------------------
Magnitude (a.u.)       :      0.02735
Magnitude (Debye)      :      0.06952

Rotational constants in cm-1:     0.119758     0.011332     0.010725
Rotational constants in MHz :  3590.246260   339.734532   321.523146

                             ****ORCA TERMINATED NORMALLY****
TOTAL RUN TIME: 0 days 2 hours 49 minutes 28 seconds 567 msec
