                         Program Version 4.2.1 -  RELEASE  -
|  1> ! UKS B3LYP def2-SV(P) def2/J D3BJ Opt
|  2> %scf Convergence VeryTight
|  3> SmearTemp 2000
|  4> maxiter 500
|  5> end
|  6> *xyz 0 1
|  7> C 5.196957 -0.352447 -0.101795
|  8> C 3.696577 -0.472585 -0.237504
|  9> C 3.01926 0.506666 0.674237
| 10> C 1.69824 0.988401 0.142858
| 11> C 0.65039 -0.08362 0.070458
| 12> C -0.463515 0.426771 -0.835951
| 13> C -1.7646 0.589185 -0.079805
| 14> C -2.835956 -0.365034 -0.579747
| 15> C -4.186897 0.099771 -0.108689
| 16> C -5.007453 -1.0451 0.418985
| 17> H 5.736517 -1.125668 -0.66599
| 18> H 5.530195 -0.365246 0.955545
| 19> H 5.542936 0.626658 -0.51148
| 20> H 3.393449 -1.487493 0.078757
| 21> H 3.427707 -0.232365 -1.281771
| 22> H 2.968797 0.097914 1.696813
| 23> H 3.680652 1.406168 0.736958
| 24> H 1.31823 1.79325 0.788509
| 25> H 1.880095 1.378298 -0.878992
| 26> H 1.005378 -1.034349 -0.354512
| 27> H 0.206127 -0.198555 1.084543
| 28> H -0.171942 1.383411 -1.339735
| 29> H -0.672855 -0.286677 -1.664472
| 30> H -2.165142 1.613654 -0.251595
| 31> H -1.642524 0.475499 1.01477
| 32> H -2.828474 -0.360459 -1.6942
| 33> H -2.647489 -1.405408 -0.235984
| 34> H -4.751023 0.57647 -0.949275
| 35> H -4.045318 0.915766 0.641768
| 36> H -5.554615 -0.766556 1.354397
| 37> H -5.801262 -1.323199 -0.313974
| 38> H -4.412441 -1.97312 0.575392
| 39> *
| 40>
| 41>                          ****END OF INPUT****
 Total Charge           Charge          ....    0
 Multiplicity           Mult            ....    1
 Number of Electrons    NEL             ....   82
Dispersion correction           -0.045021209
FINAL SINGLE POINT ENERGY      -393.701171642027
Dispersion correction            ... done
Dispersion correction           -0.043662127
FINAL SINGLE POINT ENERGY      -393.719595446127
Dispersion correction            ... done
Dispersion correction           -0.043372815
FINAL SINGLE POINT ENERGY      -393.724454639950
Dispersion correction            ... done
FINAL SINGLE POINT ENERGY      -393.726925183235
FINAL SINGLE POINT ENERGY      -393.728571399837
FINAL SINGLE POINT ENERGY      -393.730071304940
FINAL SINGLE POINT ENERGY      -393.731640531481
FINAL SINGLE POINT ENERGY      -393.733300218641
FINAL SINGLE POINT ENERGY      -393.734969858145
FINAL SINGLE POINT ENERGY      -393.736685403837
FINAL SINGLE POINT ENERGY      -393.748254570086
FINAL SINGLE POINT ENERGY      -393.748440734716
FINAL SINGLE POINT ENERGY      -393.748308765722
FINAL SINGLE POINT ENERGY      -393.748576387198
FINAL SINGLE POINT ENERGY      -393.748564784533
FINAL SINGLE POINT ENERGY      -393.748640235202
FINAL SINGLE POINT ENERGY      -393.748655897977
Dispersion correction            ... done
Dispersion correction           -0.045274738
FINAL SINGLE POINT ENERGY      -393.748667947055
Dispersion correction            ... done
Dispersion correction           -0.045269448
FINAL SINGLE POINT ENERGY      -393.748672168094
Dispersion correction            ... done
                    ***********************HURRAY********************

CARTESIAN COORDINATES (ANGSTROEM)
---------------------------------
  C      4.823833   -0.722093    0.576316
  C      3.640447   -0.076533   -0.148422
  C      2.381362    0.011811    0.721776
  C      1.189918    0.725595    0.067186
  C      0.591343   -0.010335   -1.137488
  C     -0.572379    0.727853   -1.817776
  C     -1.780453    1.043535   -0.922966
  C     -2.425245   -0.182453   -0.268596
  C     -3.689982    0.147457    0.530755
  C     -4.322237   -1.076588    1.197107
  H      5.717541   -0.775458   -0.071646
  H      4.580184   -1.751896    0.897059
  H      5.099109   -0.150553    1.482361
  H      3.424289   -0.648823   -1.069697
  H      3.920702    0.942179   -0.481202
  H      2.073429   -1.009941    1.021729
  H      2.639085    0.538099    1.661347
  H      0.405765    0.868586    0.833345
  H      1.499098    1.743439   -0.244190
  H      1.376848   -0.180312   -1.896144
  H      0.262538   -1.017674   -0.816774
  H     -0.191640    1.676261   -2.243750
  H     -0.916562    0.123091   -2.679075
  H     -2.541884    1.564775   -1.535257
  H     -1.488981    1.763293   -0.134429
  H     -2.669521   -0.928458   -1.051139
  H     -1.697540   -0.676610    0.403999
  H     -4.429781    0.628085   -0.139204
  H     -3.443655    0.903024    1.301931
  H     -5.229566   -0.806007    1.766947
  H     -4.610158   -1.834668    0.445069
  H     -3.615907   -1.558678    1.899347

 Multiplicity           Mult            ....    1
 Number of Electrons    NEL             ....   82
 Basis Dimension        Dim             ....  184

ORBITAL ENERGIES
----------------
                 SPIN UP ORBITALS
  NO   OCC          E(Eh)            E(eV)
   0   1.0000     -10.171944      -276.7927
   1   1.0000     -10.171214      -276.7728
   2   1.0000     -10.169837      -276.7353
   3   1.0000     -10.169795      -276.7342
   4   1.0000     -10.169349      -276.7220
   5   1.0000     -10.169286      -276.7203
   6   1.0000     -10.168921      -276.7104
   7   1.0000     -10.168429      -276.6970
   8   1.0000     -10.166147      -276.6349
   9   1.0000     -10.165671      -276.6220
  10   1.0000      -0.802155       -21.8278
  11   1.0000      -0.783435       -21.3184
  12   1.0000      -0.756540       -20.5865
  13   1.0000      -0.720330       -19.6012
  14   1.0000      -0.681415       -18.5422
  15   1.0000      -0.636948       -17.3322
  16   1.0000      -0.604179       -16.4405
  17   1.0000      -0.574935       -15.6448
  18   1.0000      -0.563831       -15.3426
  19   1.0000      -0.538933       -14.6651
  20   1.0000      -0.471880       -12.8405
  21   1.0000      -0.458937       -12.4883
  22   1.0000      -0.454154       -12.3582
  23   1.0000      -0.438678       -11.9370
  24   1.0000      -0.424048       -11.5389
  25   1.0000      -0.411567       -11.1993
  26   1.0000      -0.408540       -11.1169
  27   1.0000      -0.396697       -10.7947
  28   1.0000      -0.387396       -10.5416
  29   1.0000      -0.380151       -10.3444
  30   1.0000      -0.362960        -9.8766
  31   1.0000      -0.355457        -9.6725
  32   1.0000      -0.341732        -9.2990
  33   1.0000      -0.338053        -9.1989
  34   1.0000      -0.334405        -9.0996
  35   1.0000      -0.323542        -8.8040
  36   1.0000      -0.320365        -8.7176
  37   1.0000      -0.316912        -8.6236
  38   1.0000      -0.307726        -8.3736
  39   1.0000      -0.306080        -8.3289
  40   1.0000      -0.299462        -8.1488
  41   0.0000       0.052636         1.4323
  42   0.0000       0.066145         1.7999
  43   0.0000       0.070079         1.9069
  44   0.0000       0.076035         2.0690
  45   0.0000       0.080740         2.1970

                 SPIN DOWN ORBITALS
  NO   OCC          E(Eh)            E(eV)
   0   1.0000     -10.171944      -276.7927
   1   1.0000     -10.171214      -276.7728
   2   1.0000     -10.169837      -276.7353
   3   1.0000     -10.169795      -276.7342
   4   1.0000     -10.169349      -276.7220
   5   1.0000     -10.169286      -276.7203
   6   1.0000     -10.168921      -276.7104
   7   1.0000     -10.168429      -276.6970
   8   1.0000     -10.166147      -276.6349
   9   1.0000     -10.165671      -276.6220
  10   1.0000      -0.802155       -21.8278
  11   1.0000      -0.783435       -21.3184
  12   1.0000      -0.756540       -20.5865
  13   1.0000      -0.720330       -19.6012
  14   1.0000      -0.681415       -18.5422
  15   1.0000      -0.636948       -17.3322
  16   1.0000      -0.604179       -16.4405
  17   1.0000      -0.574935       -15.6448
  18   1.0000      -0.563831       -15.3426
  19   1.0000      -0.538933       -14.6651
  20   1.0000      -0.471880       -12.8405
  21   1.0000      -0.458937       -12.4883
  22   1.0000      -0.454154       -12.3582
  23   1.0000      -0.438678       -11.9370
  24   1.0000      -0.424048       -11.5389
  25   1.0000      -0.411567       -11.1993
  26   1.0000      -0.408540       -11.1169
  27   1.0000      -0.396697       -10.7947
  28   1.0000      -0.387396       -10.5416
  29   1.0000      -0.380151       -10.3444
  30   1.0000      -0.362960        -9.8766
  31   1.0000      -0.355457        -9.6725
  32   1.0000      -0.341732        -9.2990
  33   1.0000      -0.338053        -9.1989
  34   1.0000      -0.334405        -9.0996
  35   1.0000      -0.323542        -8.8040
  36   1.0000      -0.320365        -8.7176
  37   1.0000      -0.316912        -8.6236
  38   1.0000      -0.307726        -8.3736
  39   1.0000      -0.306080        -8.3289
  40   1.0000      -0.299462        -8.1488
  41   0.0000       0.052636         1.4323
  42   0.0000       0.066145         1.7999
  43   0.0000       0.070079         1.9069
  44   0.0000       0.076035         2.0690
  45   0.0000       0.080740         2.1970

LOEWDIN ATOMIC CHARGES AND SPIN POPULATIONS
-------------------------------------------
   0 C :   -0.318876    0.000000
   1 C :   -0.220090    0.000000
   2 C :   -0.208510    0.000000
   3 C :   -0.212773    0.000000
   4 C :   -0.216045    0.000000
   5 C :   -0.206177    0.000000
   6 C :   -0.214296    0.000000
   7 C :   -0.214111    0.000000
   8 C :   -0.216991    0.000000
   9 C :   -0.319465    0.000000
  10 H :    0.110747    0.000000
  11 H :    0.108940    0.000000
  12 H :    0.108186    0.000000
  13 H :    0.106478    0.000000
  14 H :    0.104978    0.000000
  15 H :    0.103694    0.000000
  16 H :    0.105530    0.000000
  17 H :    0.107904    0.000000
  18 H :    0.104351    0.000000
  19 H :    0.108315    0.000000
  20 H :    0.104760    0.000000
  21 H :    0.105732    0.000000
  22 H :    0.105929    0.000000
  23 H :    0.107088    0.000000
  24 H :    0.105509    0.000000
  25 H :    0.104552    0.000000
  26 H :    0.105503    0.000000
  27 H :    0.105324    0.000000
  28 H :    0.105702    0.000000
  29 H :    0.110807    0.000000
  30 H :    0.109000    0.000000
  31 H :    0.108304    0.000000

  Mayer bond orders larger than 0.100000
B(  0-C ,  1-C ) :   1.1370 B(  0-C , 10-H ) :   0.9601 B(  0-C , 11-H ) :   0.9590
B(  0-C , 12-H ) :   0.9593 B(  1-C ,  2-C ) :   1.1149 B(  1-C , 13-H ) :   0.9310
B(  1-C , 14-H ) :   0.9350 B(  2-C ,  3-C ) :   1.1144 B(  2-C , 15-H ) :   0.9259
B(  2-C , 16-H ) :   0.9320 B(  3-C ,  4-C ) :   1.1189 B(  3-C , 17-H ) :   0.9217
B(  3-C , 18-H ) :   0.9256 B(  4-C ,  5-C ) :   1.1147 B(  4-C , 19-H ) :   0.9245
B(  4-C , 20-H ) :   0.9226 B(  5-C ,  6-C ) :   1.1131 B(  5-C , 21-H ) :   0.9253
B(  5-C , 22-H ) :   0.9274 B(  6-C ,  7-C ) :   1.1182 B(  6-C , 23-H ) :   0.9274
B(  6-C , 24-H ) :   0.9227 B(  7-C ,  8-C ) :   1.1151 B(  7-C , 25-H ) :   0.9305
B(  7-C , 26-H ) :   0.9237 B(  8-C ,  9-C ) :   1.1368 B(  8-C , 27-H ) :   0.9346
B(  8-C , 28-H ) :   0.9335 B(  9-C , 29-H ) :   0.9590 B(  9-C , 30-H ) :   0.9592
B(  9-C , 31-H ) :   0.9592

Dispersion correction           -0.045270007
FINAL SINGLE POINT ENERGY      -393.748673308469

DIPOLE MOMENT
-------------
                                X             Y             Z
Electronic contribution:     -0.41544       1.50527      -1.59622
Nuclear contribution   :      0.41408      -1.49077       1.58016
                        -----------------------------------------
Total Dipole Moment    :     -0.00136       0.01449      -0.01606
                        -----------------------------------------
Magnitude (a.u.)       :      0.02168
Magnitude (Debye)      :      0.05509

Rotational constants in cm-1:     0.080690     0.012892     0.011767
Rotational constants in MHz :  2419.018850   386.490585   352.754278

                             ****ORCA TERMINATED NORMALLY****
TOTAL RUN TIME: 0 days 2 hours 39 minutes 27 seconds 216 msec
