                         Program Version 4.2.1 -  RELEASE  -
|  1> ! UKS B3LYP def2-SV(P) def2/J D3BJ Opt
|  2> %scf Convergence VeryTight
|  3> SmearTemp 2000
|  4> maxiter 500
|  5> end
|  6> *xyz 0 1
|  7> C -4.742332 -0.100962 0.270222
|  8> C -3.65742 0.510814 -0.574989
|  9> C -2.283226 0.351472 0.014525
| 10> C -1.586199 -0.829705 -0.646943
| 11> C -0.125406 -0.469797 -0.890661
| 12> C 0.503746 0.198702 0.300339
| 13> C 1.569248 -0.631607 0.958009
| 14> C 2.79218 -0.838075 0.125161
| 15> C 3.387419 0.425379 -0.421909
| 16> C 4.319117 1.106899 0.570974
| 17> H -5.593611 0.611282 0.403012
| 18> H -4.384925 -0.411732 1.272261
| 19> H -5.186194 -1.005718 -0.196822
| 20> H -3.888137 1.600064 -0.695175
| 21> H -3.748126 0.049316 -1.58109
| 22> H -1.71917 1.301845 -0.164959
| 23> H -2.35903 0.231623 1.110799
| 24> H -2.046575 -1.103979 -1.606507
| 25> H -1.605079 -1.662196 0.094301
| 26> H 0.410961 -1.383021 -1.213918
| 27> H -0.145673 0.236276 -1.757863
| 28> H -0.309047 0.316759 1.062701
| 29> H 0.828142 1.234228 0.071265
| 30> H 1.125245 -1.622273 1.167433
| 31> H 1.814352 -0.177116 1.92605
| 32> H 3.570048 -1.294727 0.787729
| 33> H 2.637024 -1.59467 -0.682748
| 34> H 4.0452 0.125431 -1.277128
| 35> H 2.645824 1.12062 -0.851114
| 36> H 3.812126 1.899914 1.149928
| 37> H 5.225327 1.510659 0.061656
| 38> H 4.694192 0.294293 1.235296
| 39> *
| 40>
| 41>                          ****END OF INPUT****
 Total Charge           Charge          ....    0
 Multiplicity           Mult            ....    1
 Number of Electrons    NEL             ....   82
Dispersion correction           -0.047691785
FINAL SINGLE POINT ENERGY      -393.696762609726
Dispersion correction            ... done
Dispersion correction           -0.045829326
FINAL SINGLE POINT ENERGY      -393.716579276872
Dispersion correction            ... done
Dispersion correction           -0.045567280
FINAL SINGLE POINT ENERGY      -393.722644639340
Dispersion correction            ... done
FINAL SINGLE POINT ENERGY      -393.725926574249
FINAL SINGLE POINT ENERGY      -393.728133454581
FINAL SINGLE POINT ENERGY      -393.730037738962
FINAL SINGLE POINT ENERGY      -393.731862545826
FINAL SINGLE POINT ENERGY      -393.733620448782
FINAL SINGLE POINT ENERGY      -393.735263550397
FINAL SINGLE POINT ENERGY      -393.736769904225
FINAL SINGLE POINT ENERGY      -393.746997298933
FINAL SINGLE POINT ENERGY      -393.747525822127
FINAL SINGLE POINT ENERGY      -393.747897896346
FINAL SINGLE POINT ENERGY      -393.748136539392
FINAL SINGLE POINT ENERGY      -393.748185017971
FINAL SINGLE POINT ENERGY      -393.748234712660
FINAL SINGLE POINT ENERGY      -393.748247483052
Dispersion correction            ... done
Dispersion correction           -0.048422344
FINAL SINGLE POINT ENERGY      -393.748252968605
Dispersion correction            ... done
Dispersion correction           -0.048411620
FINAL SINGLE POINT ENERGY      -393.748254229123
Dispersion correction            ... done
                    ***********************HURRAY********************

CARTESIAN COORDINATES (ANGSTROEM)
---------------------------------
  C     -3.668213   -1.272832    0.647351
  C     -3.742641   -0.027919   -0.242304
  C     -2.409767    0.718163   -0.396176
  C     -1.316505   -0.081932   -1.113966
  C     -0.025073    0.705575   -1.376831
  C      0.673173    1.262902   -0.125174
  C      1.016149    0.223160    0.953266
  C      1.906150   -0.939792    0.486914
  C      3.256317   -0.534623   -0.123897
  C      4.155644    0.274274    0.815492
  H     -4.666259   -1.726676    0.783814
  H     -3.275521   -1.020393    1.650611
  H     -3.008280   -2.047938    0.217932
  H     -4.492054    0.669482    0.177570
  H     -4.118628   -0.312510   -1.244683
  H     -2.585514    1.659159   -0.953338
  H     -2.055553    1.020755    0.607614
  H     -1.716521   -0.435699   -2.083788
  H     -1.080314   -0.994933   -0.537283
  H      0.677129    0.055205   -1.931546
  H     -0.251250    1.551462   -2.054649
  H      0.038290    2.043954    0.333026
  H      1.595860    1.782975   -0.443121
  H      0.081867   -0.197554    1.369502
  H      1.504644    0.744002    1.797735
  H      2.092234   -1.604738    1.352878
  H      1.354778   -1.553023   -0.250361
  H      3.788507   -1.454522   -0.431244
  H      3.089280    0.038751   -1.055093
  H      3.711095    1.252636    1.070991
  H      5.140479    0.470375    0.354782
  H      4.330498   -0.267748    1.763812

 Multiplicity           Mult            ....    1
 Number of Electrons    NEL             ....   82
 Basis Dimension        Dim             ....  184

ORBITAL ENERGIES
----------------
                 SPIN UP ORBITALS
  NO   OCC          E(Eh)            E(eV)
   0   1.0000     -10.171927      -276.7922
   1   1.0000     -10.171256      -276.7739
   2   1.0000     -10.169329      -276.7215
   3   1.0000     -10.169248      -276.7193
   4   1.0000     -10.169058      -276.7141
   5   1.0000     -10.168721      -276.7050
   6   1.0000     -10.168641      -276.7028
   7   1.0000     -10.168358      -276.6951
   8   1.0000     -10.165622      -276.6206
   9   1.0000     -10.165053      -276.6051
  10   1.0000      -0.803531       -21.8652
  11   1.0000      -0.782628       -21.2964
  12   1.0000      -0.753042       -20.4913
  13   1.0000      -0.715509       -19.4700
  14   1.0000      -0.678526       -18.4636
  15   1.0000      -0.648194       -17.6382
  16   1.0000      -0.614677       -16.7262
  17   1.0000      -0.577496       -15.7145
  18   1.0000      -0.551903       -15.0180
  19   1.0000      -0.522604       -14.2208
  20   1.0000      -0.474660       -12.9161
  21   1.0000      -0.468995       -12.7620
  22   1.0000      -0.446889       -12.1605
  23   1.0000      -0.440490       -11.9863
  24   1.0000      -0.427675       -11.6376
  25   1.0000      -0.420914       -11.4537
  26   1.0000      -0.398716       -10.8496
  27   1.0000      -0.393907       -10.7188
  28   1.0000      -0.389785       -10.6066
  29   1.0000      -0.374424       -10.1886
  30   1.0000      -0.364526        -9.9193
  31   1.0000      -0.361375        -9.8335
  32   1.0000      -0.345356        -9.3976
  33   1.0000      -0.338965        -9.2237
  34   1.0000      -0.334583        -9.1045
  35   1.0000      -0.322463        -8.7747
  36   1.0000      -0.320220        -8.7136
  37   1.0000      -0.316099        -8.6015
  38   1.0000      -0.304616        -8.2890
  39   1.0000      -0.300728        -8.1832
  40   1.0000      -0.298175        -8.1138
  41   0.0000       0.047170         1.2836
  42   0.0000       0.063472         1.7271
  43   0.0000       0.071173         1.9367
  44   0.0000       0.074779         2.0348
  45   0.0000       0.091746         2.4965

                 SPIN DOWN ORBITALS
  NO   OCC          E(Eh)            E(eV)
   0   1.0000     -10.171927      -276.7922
   1   1.0000     -10.171256      -276.7739
   2   1.0000     -10.169329      -276.7215
   3   1.0000     -10.169248      -276.7193
   4   1.0000     -10.169058      -276.7141
   5   1.0000     -10.168721      -276.7050
   6   1.0000     -10.168641      -276.7028
   7   1.0000     -10.168358      -276.6951
   8   1.0000     -10.165622      -276.6206
   9   1.0000     -10.165053      -276.6051
  10   1.0000      -0.803531       -21.8652
  11   1.0000      -0.782628       -21.2964
  12   1.0000      -0.753042       -20.4913
  13   1.0000      -0.715509       -19.4700
  14   1.0000      -0.678526       -18.4636
  15   1.0000      -0.648194       -17.6382
  16   1.0000      -0.614677       -16.7262
  17   1.0000      -0.577496       -15.7145
  18   1.0000      -0.551903       -15.0180
  19   1.0000      -0.522604       -14.2208
  20   1.0000      -0.474660       -12.9161
  21   1.0000      -0.468995       -12.7620
  22   1.0000      -0.446889       -12.1605
  23   1.0000      -0.440490       -11.9863
  24   1.0000      -0.427675       -11.6376
  25   1.0000      -0.420914       -11.4537
  26   1.0000      -0.398716       -10.8496
  27   1.0000      -0.393907       -10.7188
  28   1.0000      -0.389785       -10.6066
  29   1.0000      -0.374424       -10.1886
  30   1.0000      -0.364526        -9.9193
  31   1.0000      -0.361375        -9.8335
  32   1.0000      -0.345356        -9.3976
  33   1.0000      -0.338965        -9.2237
  34   1.0000      -0.334583        -9.1045
  35   1.0000      -0.322463        -8.7747
  36   1.0000      -0.320220        -8.7136
  37   1.0000      -0.316099        -8.6015
  38   1.0000      -0.304616        -8.2890
  39   1.0000      -0.300728        -8.1832
  40   1.0000      -0.298175        -8.1138
  41   0.0000       0.047170         1.2836
  42   0.0000       0.063472         1.7271
  43   0.0000       0.071173         1.9367
  44   0.0000       0.074779         2.0348
  45   0.0000       0.091746         2.4965

LOEWDIN ATOMIC CHARGES AND SPIN POPULATIONS
-------------------------------------------
   0 C :   -0.322512    0.000000
   1 C :   -0.215826    0.000000
   2 C :   -0.212746    0.000000
   3 C :   -0.214614    0.000000
   4 C :   -0.212204    0.000000
   5 C :   -0.215448    0.000000
   6 C :   -0.215305    0.000000
   7 C :   -0.214223    0.000000
   8 C :   -0.220708    0.000000
   9 C :   -0.320725    0.000000
  10 H :    0.111275    0.000000
  11 H :    0.108520    0.000000
  12 H :    0.109425    0.000000
  13 H :    0.107389    0.000000
  14 H :    0.104755    0.000000
  15 H :    0.105952    0.000000
  16 H :    0.104880    0.000000
  17 H :    0.106786    0.000000
  18 H :    0.106116    0.000000
  19 H :    0.106452    0.000000
  20 H :    0.107201    0.000000
  21 H :    0.108090    0.000000
  22 H :    0.107170    0.000000
  23 H :    0.106972    0.000000
  24 H :    0.107507    0.000000
  25 H :    0.107244    0.000000
  26 H :    0.105837    0.000000
  27 H :    0.108250    0.000000
  28 H :    0.106046    0.000000
  29 H :    0.108755    0.000000
  30 H :    0.111283    0.000000
  31 H :    0.108403    0.000000

  Mayer bond orders larger than 0.100000
B(  0-C ,  1-C ) :   1.1312 B(  0-C , 10-H ) :   0.9582 B(  0-C , 11-H ) :   0.9595
B(  0-C , 12-H ) :   0.9561 B(  1-C ,  2-C ) :   1.1112 B(  1-C , 13-H ) :   0.9368
B(  1-C , 14-H ) :   0.9336 B(  2-C ,  3-C ) :   1.1176 B(  2-C , 15-H ) :   0.9306
B(  2-C , 16-H ) :   0.9204 B(  3-C ,  4-C ) :   1.1147 B(  3-C , 17-H ) :   0.9262
B(  3-C , 18-H ) :   0.9167 B(  4-C ,  5-C ) :   1.1148 B(  4-C , 19-H ) :   0.9212
B(  4-C , 20-H ) :   0.9269 B(  5-C ,  6-C ) :   1.1183 B(  5-C , 21-H ) :   0.9252
B(  5-C , 22-H ) :   0.9205 B(  6-C ,  7-C ) :   1.1129 B(  6-C , 23-H ) :   0.9196
B(  6-C , 24-H ) :   0.9267 B(  7-C ,  8-C ) :   1.1133 B(  7-C , 25-H ) :   0.9291
B(  7-C , 26-H ) :   0.9226 B(  8-C ,  9-C ) :   1.1362 B(  8-C , 27-H ) :   0.9340
B(  8-C , 28-H ) :   0.9275 B(  9-C , 29-H ) :   0.9533 B(  9-C , 30-H ) :   0.9584
B(  9-C , 31-H ) :   0.9602

Dispersion correction           -0.048408212
FINAL SINGLE POINT ENERGY      -393.748255125937

DIPOLE MOMENT
-------------
                                X             Y             Z
Electronic contribution:     -0.40114       0.83244      -1.23049
Nuclear contribution   :      0.39222      -0.82864       1.22031
                        -----------------------------------------
Total Dipole Moment    :     -0.00892       0.00380      -0.01018
                        -----------------------------------------
Magnitude (a.u.)       :      0.01406
Magnitude (Debye)      :      0.03573

Rotational constants in cm-1:     0.088399     0.015653     0.014750
Rotational constants in MHz :  2650.135709   469.262708   442.203988

                             ****ORCA TERMINATED NORMALLY****
TOTAL RUN TIME: 0 days 2 hours 53 minutes 15 seconds 479 msec
