                         Program Version 4.2.1 -  RELEASE  -
|  1> ! UKS B3LYP def2-SV(P) def2/J D3BJ Opt
|  2> %scf Convergence VeryTight
|  3> SmearTemp 2000
|  4> maxiter 500
|  5> end
|  6> *xyz 0 2
|  7> C -0.044128 0.02008 -0.380368
|  8> C -1.443047 -0.029511 0.172956
|  9> C 0.738679 -1.246519 -0.124827
| 10> C 0.718642 1.242971 0.033497
| 11> H -0.163992 0.087142 -1.492734
| 12> H -2.011716 -0.774524 -0.434053
| 13> H -1.8965 0.952185 -0.017688
| 14> H 1.598711 -1.290119 -0.840584
| 15> H 0.1194 -2.127687 -0.36519
| 16> H 1.123733 -1.250622 0.905975
| 17> H 0.002011 2.009751 0.420483
| 18> H 1.23108 1.718745 -0.839732
| 19> H 1.534468 1.034087 0.768642
| 20> *
| 21>
| 22>                          ****END OF INPUT****
 Total Charge           Charge          ....    0
 Multiplicity           Mult            ....    2
 Number of Electrons    NEL             ....   33
Dispersion correction           -0.014499945
FINAL SINGLE POINT ENERGY      -157.519515127965
Dispersion correction            ... done
Dispersion correction           -0.014272006
FINAL SINGLE POINT ENERGY      -157.531759771939
Dispersion correction            ... done
Dispersion correction           -0.014222743
FINAL SINGLE POINT ENERGY      -157.537056662096
Dispersion correction            ... done
FINAL SINGLE POINT ENERGY      -157.539757324228
FINAL SINGLE POINT ENERGY      -157.541332731132
FINAL SINGLE POINT ENERGY      -157.542453074991
FINAL SINGLE POINT ENERGY      -157.543358666329
FINAL SINGLE POINT ENERGY      -157.544095838072
FINAL SINGLE POINT ENERGY      -157.544654083463
FINAL SINGLE POINT ENERGY      -157.545016240819
FINAL SINGLE POINT ENERGY      -157.545165203513
FINAL SINGLE POINT ENERGY      -157.545207031150
FINAL SINGLE POINT ENERGY      -157.545279704473
FINAL SINGLE POINT ENERGY      -157.545295462220
Dispersion correction            ... done
Dispersion correction           -0.014374712
FINAL SINGLE POINT ENERGY      -157.545300911548
Dispersion correction            ... done
Dispersion correction           -0.014376101
FINAL SINGLE POINT ENERGY      -157.545302137016
Dispersion correction            ... done
                    ***********************HURRAY********************

CARTESIAN COORDINATES (ANGSTROEM)
---------------------------------
  C     -0.054015    0.061704   -0.513012
  C     -1.419346   -0.013147    0.093086
  C      0.742925   -1.234287   -0.283964
  C      0.723032    1.293423   -0.020473
  H     -0.172055    0.175245   -1.617333
  H     -1.966333   -0.963258    0.120478
  H     -1.959242    0.899136    0.372915
  H      1.720601   -1.195388   -0.797074
  H      0.194778   -2.114154   -0.667241
  H      0.927916   -1.394173    0.794380
  H      0.162815    2.225671   -0.219322
  H      1.702705    1.372648   -0.524919
  H      0.903560    1.232560    1.068856

 Multiplicity           Mult            ....    2
 Number of Electrons    NEL             ....   33
 Basis Dimension        Dim             ....   74

ORBITAL ENERGIES
----------------
                 SPIN UP ORBITALS
  NO   OCC          E(Eh)            E(eV)
   0   1.0000     -10.188360      -277.2394
   1   1.0000     -10.179844      -277.0076
   2   1.0000     -10.168174      -276.6901
   3   1.0000     -10.168083      -276.6876
   4   1.0000      -0.793636       -21.5959
   5   1.0000      -0.671633       -18.2761
   6   1.0000      -0.661336       -17.9959
   7   1.0000      -0.548873       -14.9356
   8   1.0000      -0.455900       -12.4057
   9   1.0000      -0.439163       -11.9502
  10   1.0000      -0.430506       -11.7147
  11   1.0000      -0.382503       -10.4084
  12   1.0000      -0.367449        -9.9988
  13   1.0000      -0.347111        -9.4454
  14   1.0000      -0.338204        -9.2030
  15   1.0000      -0.332582        -9.0500
  16   1.0000      -0.201471        -5.4823
  17   0.0000       0.058841         1.6011
  18   0.0000       0.105459         2.8697
  19   0.0000       0.107525         2.9259
  20   0.0000       0.108288         2.9467
  21   0.0000       0.122961         3.3459

                 SPIN DOWN ORBITALS
  NO   OCC          E(Eh)            E(eV)
   0   1.0000     -10.189324      -277.2656
   1   1.0000     -10.167796      -276.6798
   2   1.0000     -10.167631      -276.6753
   3   1.0000     -10.165345      -276.6131
   4   1.0000      -0.786646       -21.4057
   5   1.0000      -0.671013       -18.2592
   6   1.0000      -0.637853       -17.3569
   7   1.0000      -0.538753       -14.6602
   8   1.0000      -0.449844       -12.2409
   9   1.0000      -0.433472       -11.7954
  10   1.0000      -0.428042       -11.6476
  11   1.0000      -0.381972       -10.3940
  12   1.0000      -0.364878        -9.9288
  13   1.0000      -0.340510        -9.2658
  14   1.0000      -0.331260        -9.0141
  15   1.0000      -0.330331        -8.9888
  16   0.0000      -0.045341        -1.2338
  17   0.0000       0.061366         1.6698
  18   0.0000       0.107326         2.9205
  19   0.0000       0.108005         2.9390
  20   0.0000       0.115507         3.1431

LOEWDIN ATOMIC CHARGES AND SPIN POPULATIONS
-------------------------------------------
   0 C :   -0.160628   -0.013494
   1 C :   -0.224042    0.979132
   2 C :   -0.307004    0.015532
   3 C :   -0.307677    0.013172
   4 H :    0.116953    0.053680
   5 H :    0.111718   -0.025624
   6 H :    0.111947   -0.025693
   7 H :    0.108888    0.000989
   8 H :    0.110013   -0.000418
   9 H :    0.110276    0.001304
  10 H :    0.109961   -0.000400
  11 H :    0.109062    0.000513
  12 H :    0.110534    0.001309

  Mayer bond orders larger than 0.100000
B(  0-C ,  1-C ) :   1.0794 B(  0-C ,  2-C ) :   1.0923 B(  0-C ,  3-C ) :   1.0919
B(  0-C ,  4-H ) :   0.8978 B(  1-C ,  5-H ) :   0.9411 B(  1-C ,  6-H ) :   0.9412
B(  2-C ,  7-H ) :   0.9561 B(  2-C ,  8-H ) :   0.9579 B(  2-C ,  9-H ) :   0.9592
B(  3-C , 10-H ) :   0.9580 B(  3-C , 11-H ) :   0.9568 B(  3-C , 12-H ) :   0.9588

Dispersion correction           -0.014376588
FINAL SINGLE POINT ENERGY      -157.545302605365

DIPOLE MOMENT
-------------
                                X             Y             Z
Electronic contribution:     -1.16510       0.01259      -0.22668
Nuclear contribution   :      1.20853      -0.00318       0.12671
                        -----------------------------------------
Total Dipole Moment    :      0.04343       0.00941      -0.09998
                        -----------------------------------------
Magnitude (a.u.)       :      0.10941
Magnitude (Debye)      :      0.27809

Rotational constants in cm-1:     0.278869     0.262017     0.152985
Rotational constants in MHz :  8360.267689  7855.065766  4586.364616

                             ****ORCA TERMINATED NORMALLY****
TOTAL RUN TIME: 0 days 2 hours 15 minutes 43 seconds 910 msec
