                         Program Version 4.2.1 -  RELEASE  -
|  1> ! UKS B3LYP def2-SV(P) def2/J D3BJ Opt
|  2> %scf Convergence VeryTight
|  3> SmearTemp 2000
|  4> maxiter 500
|  5> end
|  6> *xyz 0 2
|  7> C -0.013531 0.080692 -0.405817
|  8> C 1.100578 -0.893964 -0.035812
|  9> C 0.258437 1.320463 0.415014
| 10> C -1.378238 -0.501209 -0.149636
| 11> H 0.086033 0.318044 -1.495565
| 12> H 1.159985 -0.953932 1.066761
| 13> H 0.854804 -1.845263 -0.529144
| 14> H -0.618758 1.9544 0.57079
| 15> H 1.094952 1.851714 -0.105926
| 16> H 0.651839 1.063777 1.425385
| 17> H -1.896545 -0.692155 -1.123748
| 18> H -1.336756 -1.494497 0.355981
| 19> H -2.006439 0.232899 0.388696
| 20> *
| 21>
| 22>                          ****END OF INPUT****
 Total Charge           Charge          ....    0
 Multiplicity           Mult            ....    2
 Number of Electrons    NEL             ....   33
Dispersion correction           -0.014731284
FINAL SINGLE POINT ENERGY      -157.517634608750
Dispersion correction            ... done
Dispersion correction           -0.014436791
FINAL SINGLE POINT ENERGY      -157.530536243634
Dispersion correction            ... done
Dispersion correction           -0.014340629
FINAL SINGLE POINT ENERGY      -157.535445450338
Dispersion correction            ... done
FINAL SINGLE POINT ENERGY      -157.537578950372
FINAL SINGLE POINT ENERGY      -157.538803224647
FINAL SINGLE POINT ENERGY      -157.539781049758
FINAL SINGLE POINT ENERGY      -157.540675350117
FINAL SINGLE POINT ENERGY      -157.541526448514
FINAL SINGLE POINT ENERGY      -157.542350545452
FINAL SINGLE POINT ENERGY      -157.543148967997
FINAL SINGLE POINT ENERGY      -157.544864099519
FINAL SINGLE POINT ENERGY      -157.544980470934
FINAL SINGLE POINT ENERGY      -157.544995411782
FINAL SINGLE POINT ENERGY      -157.545005753387
FINAL SINGLE POINT ENERGY      -157.545007620751
FINAL SINGLE POINT ENERGY      -157.545010456855
FINAL SINGLE POINT ENERGY      -157.545012578044
Dispersion correction            ... done
Dispersion correction           -0.014392415
FINAL SINGLE POINT ENERGY      -157.545015301822
Dispersion correction            ... done
Dispersion correction           -0.014390891
FINAL SINGLE POINT ENERGY      -157.545016566133
Dispersion correction            ... done
                    ***********************HURRAY********************

CARTESIAN COORDINATES (ANGSTROEM)
---------------------------------
  C     -0.031791    0.081081   -0.367857
  C      0.993924   -0.997449   -0.208393
  C      0.268120    1.290117    0.528392
  C     -1.458276   -0.459179   -0.107429
  H     -0.012489    0.420729   -1.424373
  H      1.555770   -1.103496    0.727774
  H      1.070625   -1.804799   -0.946653
  H     -0.478359    2.092446    0.382931
  H      1.267179    1.709425    0.312471
  H      0.247203    0.999840    1.596500
  H     -1.688709   -1.315216   -0.766410
  H     -1.561600   -0.799834    0.939290
  H     -2.215236    0.327304   -0.289265

 Multiplicity           Mult            ....    2
 Number of Electrons    NEL             ....   33
 Basis Dimension        Dim             ....   74

ORBITAL ENERGIES
----------------
                 SPIN UP ORBITALS
  NO   OCC          E(Eh)            E(eV)
   0   1.0000     -10.187648      -277.2200
   1   1.0000     -10.180585      -277.0278
   2   1.0000     -10.170367      -276.7498
   3   1.0000     -10.167777      -276.6793
   4   1.0000      -0.793399       -21.5895
   5   1.0000      -0.671366       -18.2688
   6   1.0000      -0.661407       -17.9978
   7   1.0000      -0.549964       -14.9653
   8   1.0000      -0.461770       -12.5654
   9   1.0000      -0.432456       -11.7677
  10   1.0000      -0.422366       -11.4932
  11   1.0000      -0.386676       -10.5220
  12   1.0000      -0.377351       -10.2682
  13   1.0000      -0.345026        -9.3886
  14   1.0000      -0.339398        -9.2355
  15   1.0000      -0.328234        -8.9317
  16   1.0000      -0.202320        -5.5054
  17   0.0000       0.058591         1.5943
  18   0.0000       0.098088         2.6691
  19   0.0000       0.105868         2.8808
  20   0.0000       0.112857         3.0710
  21   0.0000       0.122603         3.3362

                 SPIN DOWN ORBITALS
  NO   OCC          E(Eh)            E(eV)
   0   1.0000     -10.188562      -277.2449
   1   1.0000     -10.168898      -276.7098
   2   1.0000     -10.167597      -276.6744
   3   1.0000     -10.166024      -276.6316
   4   1.0000      -0.786033       -21.3890
   5   1.0000      -0.669646       -18.2220
   6   1.0000      -0.637617       -17.3504
   7   1.0000      -0.541220       -14.7274
   8   1.0000      -0.457153       -12.4398
   9   1.0000      -0.429677       -11.6921
  10   1.0000      -0.415573       -11.3083
  11   1.0000      -0.383974       -10.4485
  12   1.0000      -0.373886       -10.1739
  13   1.0000      -0.338110        -9.2004
  14   1.0000      -0.334960        -9.1147
  15   1.0000      -0.325833        -8.8664
  16   0.0000      -0.045693        -1.2434
  17   0.0000       0.060201         1.6382
  18   0.0000       0.099558         2.7091
  19   0.0000       0.111543         3.0352
  20   0.0000       0.116657         3.1744

LOEWDIN ATOMIC CHARGES AND SPIN POPULATIONS
-------------------------------------------
   0 C :   -0.159158   -0.012751
   1 C :   -0.222138    0.977890
   2 C :   -0.309016    0.007211
   3 C :   -0.307558    0.049415
   4 H :    0.113307    0.021016
   5 H :    0.113175   -0.025961
   6 H :    0.111831   -0.025642
   7 H :    0.110147   -0.000129
   8 H :    0.111802    0.000566
   9 H :    0.109112   -0.000179
  10 H :    0.110127    0.000034
  11 H :    0.109173    0.000246
  12 H :    0.109195    0.008282

  Mayer bond orders larger than 0.100000
B(  0-C ,  1-C ) :   1.0819 B(  0-C ,  2-C ) :   1.0896 B(  0-C ,  3-C ) :   1.0751
B(  0-C ,  4-H ) :   0.9112 B(  1-C ,  5-H ) :   0.9418 B(  1-C ,  6-H ) :   0.9405
B(  2-C ,  7-H ) :   0.9589 B(  2-C ,  8-H ) :   0.9596 B(  2-C ,  9-H ) :   0.9564
B(  3-C , 10-H ) :   0.9597 B(  3-C , 11-H ) :   0.9576 B(  3-C , 12-H ) :   0.9536

Dispersion correction           -0.014389867
FINAL SINGLE POINT ENERGY      -157.545016798562

DIPOLE MOMENT
-------------
                                X             Y             Z
Electronic contribution:      0.93691      -0.54252      -0.71544
Nuclear contribution   :     -1.02793       0.56710       0.69577
                        -----------------------------------------
Total Dipole Moment    :     -0.09102       0.02458      -0.01966
                        -----------------------------------------
Magnitude (a.u.)       :      0.09631
Magnitude (Debye)      :      0.24481

Rotational constants in cm-1:     0.275104     0.261604     0.154894
Rotational constants in MHz :  8247.412868  7842.699794  4643.610641

                             ****ORCA TERMINATED NORMALLY****
TOTAL RUN TIME: 0 days 2 hours 30 minutes 1 seconds 439 msec
