                         Program Version 4.2.1 -  RELEASE  -
|  1> ! UKS B3LYP def2-SV(P) def2/J D3BJ Opt
|  2> %scf Convergence VeryTight
|  3> SmearTemp 2000
|  4> maxiter 500
|  5> end
|  6> *xyz 0 2
|  7> C -0.058653 0.008836 0.382777
|  8> C 1.433147 0.008372 0.17417
|  9> C -0.698141 -1.228168 -0.179633
| 10> C -0.72701 1.227936 -0.231001
| 11> H -0.228406 0.110387 1.48317
| 12> H 1.721143 0.922911 -0.371975
| 13> H 2.007738 -0.011055 1.1152
| 14> H -1.438439 -1.031604 -0.969732
| 15> H -1.230175 -1.724483 0.642428
| 16> H 0.105594 -1.861341 -0.634424
| 17> H -1.765417 1.211095 0.135288
| 18> H -0.15263 2.100541 0.173099
| 19> H -0.705799 1.158443 -1.324284
| 20> *
| 21>
| 22>                          ****END OF INPUT****
 Total Charge           Charge          ....    0
 Multiplicity           Mult            ....    2
 Number of Electrons    NEL             ....   33
Dispersion correction           -0.014663984
FINAL SINGLE POINT ENERGY      -157.514844506084
Dispersion correction            ... done
Dispersion correction           -0.014327205
FINAL SINGLE POINT ENERGY      -157.528672009140
Dispersion correction            ... done
Dispersion correction           -0.014218504
FINAL SINGLE POINT ENERGY      -157.534099059696
Dispersion correction            ... done
FINAL SINGLE POINT ENERGY      -157.536616296268
FINAL SINGLE POINT ENERGY      -157.537924988724
FINAL SINGLE POINT ENERGY      -157.538767836823
FINAL SINGLE POINT ENERGY      -157.539422986588
FINAL SINGLE POINT ENERGY      -157.539986995423
FINAL SINGLE POINT ENERGY      -157.540587002970
FINAL SINGLE POINT ENERGY      -157.541294890103
FINAL SINGLE POINT ENERGY      -157.542088094990
FINAL SINGLE POINT ENERGY      -157.542940225855
FINAL SINGLE POINT ENERGY      -157.543775748804
FINAL SINGLE POINT ENERGY      -157.544482727627
FINAL SINGLE POINT ENERGY      -157.544903400469
FINAL SINGLE POINT ENERGY      -157.544970287005
FINAL SINGLE POINT ENERGY      -157.544863195195
Dispersion correction            ... done
Dispersion correction           -0.014389051
FINAL SINGLE POINT ENERGY      -157.545006256046
Dispersion correction            ... done
Dispersion correction           -0.014388730
FINAL SINGLE POINT ENERGY      -157.545007460246
Dispersion correction            ... done
                    ***********************HURRAY********************

CARTESIAN COORDINATES (ANGSTROEM)
---------------------------------
  C     -0.040761    0.088992    0.440031
  C      1.418699    0.227713    0.136638
  C     -0.606159   -1.236960   -0.124125
  C     -0.846887    1.289534   -0.075723
  H     -0.160369    0.040620    1.542142
  H      1.757055    0.790004   -0.742655
  H      2.157789   -0.383995    0.667567
  H     -0.537739   -1.252701   -1.228002
  H     -1.669237   -1.361155    0.156692
  H     -0.046761   -2.107201    0.262719
  H     -1.918826    1.190038    0.175333
  H     -0.479344    2.234996    0.361197
  H     -0.764508    1.371984   -1.176732

 Multiplicity           Mult            ....    2
 Number of Electrons    NEL             ....   33
 Basis Dimension        Dim             ....   74

ORBITAL ENERGIES
----------------
                 SPIN UP ORBITALS
  NO   OCC          E(Eh)            E(eV)
   0   1.0000     -10.187798      -277.2241
   1   1.0000     -10.180268      -277.0192
   2   1.0000     -10.170467      -276.7525
   3   1.0000     -10.167779      -276.6793
   4   1.0000      -0.793237       -21.5851
   5   1.0000      -0.671162       -18.2632
   6   1.0000      -0.661335       -17.9958
   7   1.0000      -0.549912       -14.9639
   8   1.0000      -0.461978       -12.5711
   9   1.0000      -0.432301       -11.7635
  10   1.0000      -0.421309       -11.4644
  11   1.0000      -0.387039       -10.5319
  12   1.0000      -0.377678       -10.2772
  13   1.0000      -0.344735        -9.3807
  14   1.0000      -0.339328        -9.2336
  15   1.0000      -0.327848        -8.9212
  16   1.0000      -0.202147        -5.5007
  17   0.0000       0.058685         1.5969
  18   0.0000       0.097949         2.6653
  19   0.0000       0.105703         2.8763
  20   0.0000       0.113414         3.0862
  21   0.0000       0.122201         3.3253

                 SPIN DOWN ORBITALS
  NO   OCC          E(Eh)            E(eV)
   0   1.0000     -10.188709      -277.2489
   1   1.0000     -10.168975      -276.7119
   2   1.0000     -10.167570      -276.6737
   3   1.0000     -10.165652      -276.6214
   4   1.0000      -0.785841       -21.3838
   5   1.0000      -0.669380       -18.2148
   6   1.0000      -0.637529       -17.3480
   7   1.0000      -0.541241       -14.7279
   8   1.0000      -0.457397       -12.4464
   9   1.0000      -0.429546       -11.6885
  10   1.0000      -0.414448       -11.2777
  11   1.0000      -0.384103       -10.4520
  12   1.0000      -0.374289       -10.1849
  13   1.0000      -0.337865        -9.1938
  14   1.0000      -0.334824        -9.1110
  15   1.0000      -0.325580        -8.8595
  16   0.0000      -0.045312        -1.2330
  17   0.0000       0.060239         1.6392
  18   0.0000       0.099397         2.7047
  19   0.0000       0.111409         3.0316
  20   0.0000       0.117238         3.1902

LOEWDIN ATOMIC CHARGES AND SPIN POPULATIONS
-------------------------------------------
   0 C :   -0.160825   -0.012760
   1 C :   -0.220982    0.977608
   2 C :   -0.307824    0.050171
   3 C :   -0.308810    0.008041
   4 H :    0.114178    0.019286
   5 H :    0.113007   -0.025914
   6 H :    0.111652   -0.025618
   7 H :    0.109720    0.000150
   8 H :    0.109035    0.008536
   9 H :    0.109906    0.000074
  10 H :    0.109812    0.000061
  11 H :    0.111759    0.000600
  12 H :    0.109373   -0.000236

  Mayer bond orders larger than 0.100000
B(  0-C ,  1-C ) :   1.0836 B(  0-C ,  2-C ) :   1.0748 B(  0-C ,  3-C ) :   1.0909
B(  0-C ,  4-H ) :   0.9120 B(  1-C ,  5-H ) :   0.9418 B(  1-C ,  6-H ) :   0.9404
B(  2-C ,  7-H ) :   0.9580 B(  2-C ,  8-H ) :   0.9528 B(  2-C ,  9-H ) :   0.9589
B(  3-C , 10-H ) :   0.9584 B(  3-C , 11-H ) :   0.9596 B(  3-C , 12-H ) :   0.9570

Dispersion correction           -0.014388688
FINAL SINGLE POINT ENERGY      -157.545007739344

DIPOLE MOMENT
-------------
                                X             Y             Z
Electronic contribution:      1.10675       0.18485       0.66958
Nuclear contribution   :     -1.17818      -0.24329      -0.65468
                        -----------------------------------------
Total Dipole Moment    :     -0.07143      -0.05844       0.01490
                        -----------------------------------------
Magnitude (a.u.)       :      0.09348
Magnitude (Debye)      :      0.23761

Rotational constants in cm-1:     0.274754     0.261554     0.154978
Rotational constants in MHz :  8236.921135  7841.178559  4646.110584

                             ****ORCA TERMINATED NORMALLY****
TOTAL RUN TIME: 0 days 2 hours 27 minutes 39 seconds 305 msec
