                         Program Version 4.2.1 -  RELEASE  -
|  1> ! UKS B3LYP def2-SV(P) def2/J D3BJ Opt
|  2> %scf Convergence VeryTight
|  3> SmearTemp 2000
|  4> maxiter 500
|  5> end
|  6> *xyz 0 2
|  7> C 0.072221 -0.032482 -0.346561
|  8> C 0.505744 1.301146 0.180439
|  9> C -1.411939 -0.161291 -0.122208
| 10> C 0.859189 -1.191009 0.177817
| 11> H 0.212715 -0.009292 -1.458175
| 12> H -0.337583 1.906506 0.599227
| 13> H 1.273966 1.24313 0.964704
| 14> H -1.690969 -0.415783 0.909117
| 15> H -1.839215 0.850244 -0.33206
| 16> H -1.879757 -0.839576 -0.877447
| 17> H 0.274192 -1.913705 0.771976
| 18> H 1.724278 -0.894638 0.817025
| 19> H 1.313489 -1.79121 -0.651259
| 20> *
| 21>
| 22>                          ****END OF INPUT****
 Total Charge           Charge          ....    0
 Multiplicity           Mult            ....    2
 Number of Electrons    NEL             ....   33
Dispersion correction           -0.014578745
FINAL SINGLE POINT ENERGY      -157.519742025781
Dispersion correction            ... done
Dispersion correction           -0.014335352
FINAL SINGLE POINT ENERGY      -157.530307201605
Dispersion correction            ... done
Dispersion correction           -0.014276525
FINAL SINGLE POINT ENERGY      -157.534761352534
Dispersion correction            ... done
FINAL SINGLE POINT ENERGY      -157.537213778547
FINAL SINGLE POINT ENERGY      -157.538664719640
FINAL SINGLE POINT ENERGY      -157.539685256799
FINAL SINGLE POINT ENERGY      -157.540514387166
FINAL SINGLE POINT ENERGY      -157.541247229238
FINAL SINGLE POINT ENERGY      -157.541956048246
FINAL SINGLE POINT ENERGY      -157.542688522411
FINAL SINGLE POINT ENERGY      -157.543447333104
FINAL SINGLE POINT ENERGY      -157.544182037361
FINAL SINGLE POINT ENERGY      -157.544787579981
FINAL SINGLE POINT ENERGY      -157.545171427179
FINAL SINGLE POINT ENERGY      -157.545294589548
Dispersion correction            ... done
Dispersion correction           -0.014377321
FINAL SINGLE POINT ENERGY      -157.545304580536
Dispersion correction            ... done
Dispersion correction           -0.014374999
FINAL SINGLE POINT ENERGY      -157.545309658087
Dispersion correction            ... done
                    ***********************HURRAY********************

CARTESIAN COORDINATES (ANGSTROEM)
---------------------------------
  C      0.072210    0.041708   -0.252220
  C      0.421129    1.222420    0.597256
  C     -1.443782   -0.213603   -0.278959
  C      0.848063   -1.216232    0.172397
  H      0.378822    0.269855   -1.301223
  H     -0.266290    2.072639    0.682747
  H      1.429645    1.334137    1.012155
  H     -1.815709   -0.471533    0.730035
  H     -1.994130    0.681269   -0.622732
  H     -1.694093   -1.047668   -0.959554
  H      0.569755   -1.518586    1.198966
  H      1.939288   -1.038851    0.157096
  H      0.631422   -2.063515   -0.503368

 Multiplicity           Mult            ....    2
 Number of Electrons    NEL             ....   33
 Basis Dimension        Dim             ....   74

ORBITAL ENERGIES
----------------
                 SPIN UP ORBITALS
  NO   OCC          E(Eh)            E(eV)
   0   1.0000     -10.188253      -277.2365
   1   1.0000     -10.179639      -277.0021
   2   1.0000     -10.168381      -276.6957
   3   1.0000     -10.168177      -276.6902
   4   1.0000      -0.793657       -21.5965
   5   1.0000      -0.671757       -18.2794
   6   1.0000      -0.661346       -17.9961
   7   1.0000      -0.548858       -14.9352
   8   1.0000      -0.455840       -12.4040
   9   1.0000      -0.439282       -11.9535
  10   1.0000      -0.430592       -11.7170
  11   1.0000      -0.382455       -10.4071
  12   1.0000      -0.367581       -10.0024
  13   1.0000      -0.347054        -9.4438
  14   1.0000      -0.338094        -9.2000
  15   1.0000      -0.332798        -9.0559
  16   1.0000      -0.201627        -5.4865
  17   0.0000       0.059416         1.6168
  18   0.0000       0.105318         2.8658
  19   0.0000       0.107242         2.9182
  20   0.0000       0.108292         2.9468
  21   0.0000       0.123396         3.3578

                 SPIN DOWN ORBITALS
  NO   OCC          E(Eh)            E(eV)
   0   1.0000     -10.189218      -277.2627
   1   1.0000     -10.167966      -276.6844
   2   1.0000     -10.167767      -276.6790
   3   1.0000     -10.165119      -276.6070
   4   1.0000      -0.786674       -21.4065
   5   1.0000      -0.671141       -18.2627
   6   1.0000      -0.637870       -17.3573
   7   1.0000      -0.538730       -14.6596
   8   1.0000      -0.449777       -12.2391
   9   1.0000      -0.433591       -11.7986
  10   1.0000      -0.428129       -11.6500
  11   1.0000      -0.381931       -10.3929
  12   1.0000      -0.365008        -9.9324
  13   1.0000      -0.340511        -9.2658
  14   1.0000      -0.331412        -9.0182
  15   1.0000      -0.330278        -8.9873
  16   0.0000      -0.045402        -1.2355
  17   0.0000       0.061956         1.6859
  18   0.0000       0.107072         2.9136
  19   0.0000       0.107773         2.9326
  20   0.0000       0.115914         3.1542

LOEWDIN ATOMIC CHARGES AND SPIN POPULATIONS
-------------------------------------------
   0 C :   -0.159330   -0.013536
   1 C :   -0.223564    0.979332
   2 C :   -0.307323    0.014147
   3 C :   -0.308981    0.014406
   4 H :    0.115828    0.053703
   5 H :    0.111850   -0.025655
   6 H :    0.111584   -0.025576
   7 H :    0.110121    0.001286
   8 H :    0.110239   -0.000429
   9 H :    0.109232    0.000667
  10 H :    0.110006    0.001386
  11 H :    0.110719   -0.000421
  12 H :    0.109620    0.000690

  Mayer bond orders larger than 0.100000
B(  0-C ,  1-C ) :   1.0802 B(  0-C ,  2-C ) :   1.0912 B(  0-C ,  3-C ) :   1.0911
B(  0-C ,  4-H ) :   0.8974 B(  1-C ,  5-H ) :   0.9412 B(  1-C ,  6-H ) :   0.9413
B(  2-C ,  7-H ) :   0.9587 B(  2-C ,  8-H ) :   0.9574 B(  2-C ,  9-H ) :   0.9579
B(  3-C , 10-H ) :   0.9584 B(  3-C , 11-H ) :   0.9577 B(  3-C , 12-H ) :   0.9575

Dispersion correction           -0.014375648
FINAL SINGLE POINT ENERGY      -157.545310209471

DIPOLE MOMENT
-------------
                                X             Y             Z
Electronic contribution:      0.47432       1.08717       0.00622
Nuclear contribution   :     -0.46634      -1.11225      -0.11241
                        -----------------------------------------
Total Dipole Moment    :      0.00798      -0.02509      -0.10619
                        -----------------------------------------
Magnitude (a.u.)       :      0.10940
Magnitude (Debye)      :      0.27808

Rotational constants in cm-1:     0.278935     0.261983     0.152956
Rotational constants in MHz :  8362.246196  7854.064279  4585.498932

                             ****ORCA TERMINATED NORMALLY****
TOTAL RUN TIME: 0 days 2 hours 18 minutes 16 seconds 502 msec
