                         Program Version 4.2.1 -  RELEASE  -
|  1> ! UKS B3LYP def2-SV(P) def2/J D3BJ Opt
|  2> %scf Convergence VeryTight
|  3> SmearTemp 2000
|  4> maxiter 500
|  5> end
|  6> *xyz 0 2
|  7> C -0.078024 0.057177 0.373548
|  8> C 1.265433 -0.608904 0.147611
|  9> C -1.175437 -0.828589 -0.146067
| 10> C -0.094988 1.436795 -0.232256
| 11> H -0.249116 0.163443 1.475314
| 12> H 1.821705 -0.151474 -0.707389
| 13> H 1.106826 -1.685632 -0.082089
| 14> H -0.962242 -1.860898 0.229844
| 15> H -1.196159 -0.908035 -1.249728
| 16> H -2.174879 -0.573486 0.259115
| 17> H -0.392092 2.215481 0.515502
| 18> H 0.958985 1.702901 -0.50014
| 19> H -0.70523 1.500086 -1.15741
| 20> *
| 21>
| 22>                          ****END OF INPUT****
 Total Charge           Charge          ....    0
 Multiplicity           Mult            ....    2
 Number of Electrons    NEL             ....   33
Dispersion correction           -0.014669612
FINAL SINGLE POINT ENERGY      -157.519497797757
Dispersion correction            ... done
Dispersion correction           -0.014409555
FINAL SINGLE POINT ENERGY      -157.530783042099
Dispersion correction            ... done
Dispersion correction           -0.014334483
FINAL SINGLE POINT ENERGY      -157.535752695766
Dispersion correction            ... done
FINAL SINGLE POINT ENERGY      -157.538360147801
FINAL SINGLE POINT ENERGY      -157.539871308222
FINAL SINGLE POINT ENERGY      -157.540968486075
FINAL SINGLE POINT ENERGY      -157.541882456453
FINAL SINGLE POINT ENERGY      -157.542693031153
FINAL SINGLE POINT ENERGY      -157.543434839346
FINAL SINGLE POINT ENERGY      -157.544097790796
FINAL SINGLE POINT ENERGY      -157.545115781434
FINAL SINGLE POINT ENERGY      -157.545144804463
FINAL SINGLE POINT ENERGY      -157.545189384694
FINAL SINGLE POINT ENERGY      -157.545201517928
FINAL SINGLE POINT ENERGY      -157.545226179041
FINAL SINGLE POINT ENERGY      -157.545254557856
FINAL SINGLE POINT ENERGY      -157.545288452528
Dispersion correction            ... done
Dispersion correction           -0.014378753
FINAL SINGLE POINT ENERGY      -157.545301544089
Dispersion correction            ... done
Dispersion correction           -0.014375033
FINAL SINGLE POINT ENERGY      -157.545302983065
Dispersion correction            ... done
                    ***********************HURRAY********************

CARTESIAN COORDINATES (ANGSTROEM)
---------------------------------
  C     -0.001881   -0.001281    0.273778
  C      1.222047   -0.699043   -0.229364
  C     -1.279633   -0.804488   -0.027242
  C     -0.102555    1.435393   -0.263104
  H      0.075895    0.072380    1.384830
  H      2.121071   -0.133792   -0.501438
  H      1.299869   -1.792170   -0.181638
  H     -1.216363   -1.828151    0.384154
  H     -1.441023   -0.887865   -1.117996
  H     -2.167591   -0.317047    0.414717
  H     -0.975923    1.959517    0.165626
  H      0.801147    2.021014   -0.012413
  H     -0.210279    1.434398   -1.364054

 Multiplicity           Mult            ....    2
 Number of Electrons    NEL             ....   33
 Basis Dimension        Dim             ....   74

ORBITAL ENERGIES
----------------
                 SPIN UP ORBITALS
  NO   OCC          E(Eh)            E(eV)
   0   1.0000     -10.188422      -277.2411
   1   1.0000     -10.180009      -277.0121
   2   1.0000     -10.168397      -276.6962
   3   1.0000     -10.168224      -276.6914
   4   1.0000      -0.793570       -21.5941
   5   1.0000      -0.671617       -18.2756
   6   1.0000      -0.661347       -17.9962
   7   1.0000      -0.548902       -14.9364
   8   1.0000      -0.456025       -12.4091
   9   1.0000      -0.439003       -11.9459
  10   1.0000      -0.430515       -11.7149
  11   1.0000      -0.382544       -10.4095
  12   1.0000      -0.367544       -10.0014
  13   1.0000      -0.347024        -9.4430
  14   1.0000      -0.338270        -9.2048
  15   1.0000      -0.332574        -9.0498
  16   1.0000      -0.201540        -5.4842
  17   0.0000       0.059270         1.6128
  18   0.0000       0.105598         2.8735
  19   0.0000       0.107305         2.9199
  20   0.0000       0.108512         2.9528
  21   0.0000       0.123140         3.3508

                 SPIN DOWN ORBITALS
  NO   OCC          E(Eh)            E(eV)
   0   1.0000     -10.189384      -277.2672
   1   1.0000     -10.168076      -276.6874
   2   1.0000     -10.167711      -276.6775
   3   1.0000     -10.165507      -276.6175
   4   1.0000      -0.786586       -21.4041
   5   1.0000      -0.670989       -18.2585
   6   1.0000      -0.637860       -17.3570
   7   1.0000      -0.538785       -14.6611
   8   1.0000      -0.450022       -12.2457
   9   1.0000      -0.433277       -11.7901
  10   1.0000      -0.428043       -11.6476
  11   1.0000      -0.382025       -10.3954
  12   1.0000      -0.364937        -9.9304
  13   1.0000      -0.340440        -9.2638
  14   1.0000      -0.331548        -9.0219
  15   1.0000      -0.330118        -8.9830
  16   0.0000      -0.045287        -1.2323
  17   0.0000       0.061758         1.6805
  18   0.0000       0.106990         2.9114
  19   0.0000       0.108312         2.9473
  20   0.0000       0.115879         3.1532

LOEWDIN ATOMIC CHARGES AND SPIN POPULATIONS
-------------------------------------------
   0 C :   -0.160210   -0.013538
   1 C :   -0.224336    0.979401
   2 C :   -0.307341    0.017432
   3 C :   -0.309331    0.011398
   4 H :    0.117120    0.053350
   5 H :    0.112074   -0.025724
   6 H :    0.111591   -0.025562
   7 H :    0.110096   -0.000425
   8 H :    0.110548    0.001317
   9 H :    0.108830    0.001348
  10 H :    0.109507    0.000176
  11 H :    0.110475   -0.000385
  12 H :    0.110976    0.001213

  Mayer bond orders larger than 0.100000
B(  0-C ,  1-C ) :   1.0786 B(  0-C ,  2-C ) :   1.0899 B(  0-C ,  3-C ) :   1.0914
B(  0-C ,  4-H ) :   0.8985 B(  1-C ,  5-H ) :   0.9422 B(  1-C ,  6-H ) :   0.9413
B(  2-C ,  7-H ) :   0.9569 B(  2-C ,  8-H ) :   0.9596 B(  2-C ,  9-H ) :   0.9570
B(  3-C , 10-H ) :   0.9582 B(  3-C , 11-H ) :   0.9571 B(  3-C , 12-H ) :   0.9588

Dispersion correction           -0.014374418
FINAL SINGLE POINT ENERGY      -157.545303242995

DIPOLE MOMENT
-------------
                                X             Y             Z
Electronic contribution:      1.02660      -0.51102       0.31416
Nuclear contribution   :     -1.06430       0.54016      -0.21691
                        -----------------------------------------
Total Dipole Moment    :     -0.03770       0.02914       0.09725
                        -----------------------------------------
Magnitude (a.u.)       :      0.10829
Magnitude (Debye)      :      0.27526

Rotational constants in cm-1:     0.278672     0.262059     0.152966
Rotational constants in MHz :  8354.377040  7856.318566  4585.813929

                             ****ORCA TERMINATED NORMALLY****
TOTAL RUN TIME: 0 days 2 hours 28 minutes 25 seconds 670 msec
