                         Program Version 4.2.1 -  RELEASE  -
|  1> ! UKS B3LYP def2-SV(P) def2/J D3BJ Opt
|  2> %scf Convergence VeryTight
|  3> SmearTemp 2000
|  4> maxiter 500
|  5> end
|  6> *xyz 0 2
|  7> C -0.013801 0.075577 0.399739
|  8> C -0.348355 1.386235 -0.271444
|  9> C 1.360581 -0.419639 0.068919
| 10> C -1.012493 -0.978134 -0.044105
| 11> H -0.1868 0.210216 1.494906
| 12> H 0.184781 2.224524 0.242874
| 13> H -0.107453 1.367219 -1.359916
| 14> H 1.359594 -1.460325 -0.340495
| 15> H 1.93323 -0.481087 1.029512
| 16> H 1.920686 0.247782 -0.614047
| 17> H -0.586168 -1.454504 -0.942256
| 18> H -1.091176 -1.764691 0.733695
| 19> H -1.960313 -0.467155 -0.259917
| 20> *
| 21>
| 22>                          ****END OF INPUT****
 Total Charge           Charge          ....    0
 Multiplicity           Mult            ....    2
 Number of Electrons    NEL             ....   33
Dispersion correction           -0.014732179
FINAL SINGLE POINT ENERGY      -157.517992839744
Dispersion correction            ... done
Dispersion correction           -0.014403281
FINAL SINGLE POINT ENERGY      -157.530271334249
Dispersion correction            ... done
Dispersion correction           -0.014304621
FINAL SINGLE POINT ENERGY      -157.534618176395
Dispersion correction            ... done
FINAL SINGLE POINT ENERGY      -157.536726107496
FINAL SINGLE POINT ENERGY      -157.537903917080
FINAL SINGLE POINT ENERGY      -157.538664528493
FINAL SINGLE POINT ENERGY      -157.539217557456
FINAL SINGLE POINT ENERGY      -157.539694712427
FINAL SINGLE POINT ENERGY      -157.540243184337
FINAL SINGLE POINT ENERGY      -157.540855713228
FINAL SINGLE POINT ENERGY      -157.543758893253
FINAL SINGLE POINT ENERGY      -157.544537754680
FINAL SINGLE POINT ENERGY      -157.544877133981
FINAL SINGLE POINT ENERGY      -157.544926970859
FINAL SINGLE POINT ENERGY      -157.544955549830
FINAL SINGLE POINT ENERGY      -157.545006161318
FINAL SINGLE POINT ENERGY      -157.545008794578
Dispersion correction            ... done
Dispersion correction           -0.014391886
FINAL SINGLE POINT ENERGY      -157.545012784662
Dispersion correction            ... done
Dispersion correction           -0.014391583
FINAL SINGLE POINT ENERGY      -157.545014302075
Dispersion correction            ... done
                    ***********************HURRAY********************

CARTESIAN COORDINATES (ANGSTROEM)
---------------------------------
  C     -0.006110    0.038071    0.383359
  C     -0.147227    1.412423   -0.193210
  C      1.440613   -0.488727    0.228687
  C     -1.012580   -0.943810   -0.233222
  H     -0.206175    0.099179    1.472906
  H      0.267728    2.282249    0.329706
  H     -0.498446    1.553348   -1.222786
  H      1.549302   -1.480424    0.706943
  H      2.169824    0.197518    0.694716
  H      1.706216   -0.592166   -0.839532
  H     -0.837526   -1.050156   -1.321102
  H     -0.922318   -1.947174    0.221032
  H     -2.050987   -0.594313   -0.090032

 Multiplicity           Mult            ....    2
 Number of Electrons    NEL             ....   33
 Basis Dimension        Dim             ....   74

ORBITAL ENERGIES
----------------
                 SPIN UP ORBITALS
  NO   OCC          E(Eh)            E(eV)
   0   1.0000     -10.187447      -277.2145
   1   1.0000     -10.179817      -277.0069
   2   1.0000     -10.169889      -276.7368
   3   1.0000     -10.167761      -276.6788
   4   1.0000      -0.793166       -21.5831
   5   1.0000      -0.671088       -18.2612
   6   1.0000      -0.661201       -17.9922
   7   1.0000      -0.549727       -14.9588
   8   1.0000      -0.462022       -12.5722
   9   1.0000      -0.432208       -11.7610
  10   1.0000      -0.420793       -11.4504
  11   1.0000      -0.387026       -10.5315
  12   1.0000      -0.377736       -10.2787
  13   1.0000      -0.344582        -9.3766
  14   1.0000      -0.339287        -9.2325
  15   1.0000      -0.327586        -8.9141
  16   1.0000      -0.202031        -5.4976
  17   0.0000       0.059137         1.6092
  18   0.0000       0.097826         2.6620
  19   0.0000       0.105824         2.8796
  20   0.0000       0.113265         3.0821
  21   0.0000       0.122648         3.3374

                 SPIN DOWN ORBITALS
  NO   OCC          E(Eh)            E(eV)
   0   1.0000     -10.188356      -277.2393
   1   1.0000     -10.168401      -276.6963
   2   1.0000     -10.167536      -276.6727
   3   1.0000     -10.165192      -276.6089
   4   1.0000      -0.785778       -21.3821
   5   1.0000      -0.669278       -18.2120
   6   1.0000      -0.637358       -17.3434
   7   1.0000      -0.541056       -14.7229
   8   1.0000      -0.457472       -12.4484
   9   1.0000      -0.429482       -11.6868
  10   1.0000      -0.413914       -11.2632
  11   1.0000      -0.383958       -10.4480
  12   1.0000      -0.374426       -10.1886
  13   1.0000      -0.337788        -9.1917
  14   1.0000      -0.334716        -9.1081
  15   1.0000      -0.325355        -8.8534
  16   0.0000      -0.045088        -1.2269
  17   0.0000       0.060708         1.6519
  18   0.0000       0.099301         2.7021
  19   0.0000       0.111773         3.0415
  20   0.0000       0.116945         3.1822

LOEWDIN ATOMIC CHARGES AND SPIN POPULATIONS
-------------------------------------------
   0 C :   -0.160741   -0.012680
   1 C :   -0.221134    0.978209
   2 C :   -0.306202    0.050029
   3 C :   -0.308447    0.008558
   4 H :    0.113648    0.018391
   5 H :    0.111731   -0.025748
   6 H :    0.112786   -0.025982
   7 H :    0.108538    0.008514
   8 H :    0.110106    0.000086
   9 H :    0.109037    0.000132
  10 H :    0.109237   -0.000259
  11 H :    0.109556    0.000186
  12 H :    0.111887    0.000564

  Mayer bond orders larger than 0.100000
B(  0-C ,  1-C ) :   1.0800 B(  0-C ,  2-C ) :   1.0744 B(  0-C ,  3-C ) :   1.0916
B(  0-C ,  4-H ) :   0.9126 B(  1-C ,  5-H ) :   0.9408 B(  1-C ,  6-H ) :   0.9414
B(  2-C ,  7-H ) :   0.9535 B(  2-C ,  8-H ) :   0.9589 B(  2-C ,  9-H ) :   0.9582
B(  3-C , 10-H ) :   0.9563 B(  3-C , 11-H ) :   0.9580 B(  3-C , 12-H ) :   0.9606

Dispersion correction           -0.014390103
FINAL SINGLE POINT ENERGY      -157.545015406648

DIPOLE MOMENT
-------------
                                X             Y             Z
Electronic contribution:     -0.38436       1.17432       0.40800
Nuclear contribution   :      0.44158      -1.24083      -0.36758
                        -----------------------------------------
Total Dipole Moment    :      0.05721      -0.06651       0.04042
                        -----------------------------------------
Magnitude (a.u.)       :      0.09660
Magnitude (Debye)      :      0.24553

Rotational constants in cm-1:     0.274546     0.261806     0.155063
Rotational constants in MHz :  8230.693697  7848.743034  4648.683834

                             ****ORCA TERMINATED NORMALLY****
TOTAL RUN TIME: 0 days 2 hours 31 minutes 12 seconds 907 msec
