                         Program Version 4.2.1 -  RELEASE  -
|  1> ! UKS B3LYP def2-SV(P) def2/J D3BJ Opt
|  2> %scf Convergence VeryTight
|  3> SmearTemp 2000
|  4> maxiter 500
|  5> end
|  6> *xyz 0 2
|  7> C 0.014335 0.133011 0.331503
|  8> C -0.896459 1.134156 -0.320904
|  9> C 1.395599 0.109987 -0.247402
| 10> C -0.539714 -1.273797 0.304892
| 11> H 0.086116 0.436608 1.407166
| 12> H -1.866118 1.098276 0.231732
| 13> H -1.08879 0.948749 -1.384881
| 14> H 1.565125 0.832498 -1.056706
| 15> H 1.673083 -0.90264 -0.636779
| 16> H 2.162445 0.326202 0.539492
| 17> H -1.345636 -1.412934 -0.433157
| 18> H -0.944143 -1.558993 1.309056
| 19> H 0.265764 -2.009744 0.056049
| 20> *
| 21>
| 22>                          ****END OF INPUT****
 Total Charge           Charge          ....    0
 Multiplicity           Mult            ....    2
 Number of Electrons    NEL             ....   33
Dispersion correction           -0.014575501
FINAL SINGLE POINT ENERGY      -157.516683775690
Dispersion correction            ... done
Dispersion correction           -0.014280439
FINAL SINGLE POINT ENERGY      -157.528295133756
Dispersion correction            ... done
Dispersion correction           -0.014230080
FINAL SINGLE POINT ENERGY      -157.531769383666
Dispersion correction            ... done
FINAL SINGLE POINT ENERGY      -157.533698395047
FINAL SINGLE POINT ENERGY      -157.534987546724
FINAL SINGLE POINT ENERGY      -157.536135166533
FINAL SINGLE POINT ENERGY      -157.537248953639
FINAL SINGLE POINT ENERGY      -157.538300963377
FINAL SINGLE POINT ENERGY      -157.539242682504
FINAL SINGLE POINT ENERGY      -157.540073290146
FINAL SINGLE POINT ENERGY      -157.543295747245
FINAL SINGLE POINT ENERGY      -157.543998095489
FINAL SINGLE POINT ENERGY      -157.544535272768
FINAL SINGLE POINT ENERGY      -157.544864552913
FINAL SINGLE POINT ENERGY      -157.544965864545
FINAL SINGLE POINT ENERGY      -157.544978877166
FINAL SINGLE POINT ENERGY      -157.544997758441
Dispersion correction            ... done
Dispersion correction           -0.014381334
FINAL SINGLE POINT ENERGY      -157.545000092278
Dispersion correction            ... done
Dispersion correction           -0.014383605
FINAL SINGLE POINT ENERGY      -157.545001030568
Dispersion correction            ... done
                    ***********************HURRAY********************

CARTESIAN COORDINATES (ANGSTROEM)
---------------------------------
  C      0.011630    0.090874    0.337861
  C     -1.021207    0.930817   -0.347355
  C      1.361366    0.139427   -0.392332
  C     -0.472002   -1.369273    0.504694
  H      0.158314    0.493574    1.361500
  H     -1.936845    1.227005    0.178125
  H     -0.962913    1.127050   -1.425043
  H      1.734224    1.175841   -0.476544
  H      1.266172   -0.269822   -1.416121
  H      2.124827   -0.458386    0.138004
  H     -0.629063   -1.844437   -0.481016
  H     -1.427038   -1.412688    1.058033
  H      0.274142   -1.968602    1.060255

 Multiplicity           Mult            ....    2
 Number of Electrons    NEL             ....   33
 Basis Dimension        Dim             ....   74

ORBITAL ENERGIES
----------------
                 SPIN UP ORBITALS
  NO   OCC          E(Eh)            E(eV)
   0   1.0000     -10.187603      -277.2188
   1   1.0000     -10.179741      -277.0048
   2   1.0000     -10.169947      -276.7383
   3   1.0000     -10.167516      -276.6722
   4   1.0000      -0.793137       -21.5823
   5   1.0000      -0.671048       -18.2602
   6   1.0000      -0.661158       -17.9910
   7   1.0000      -0.549739       -14.9592
   8   1.0000      -0.461704       -12.5636
   9   1.0000      -0.432215       -11.7612
  10   1.0000      -0.421774       -11.4770
  11   1.0000      -0.386629       -10.5207
  12   1.0000      -0.377190       -10.2639
  13   1.0000      -0.344713        -9.3801
  14   1.0000      -0.339114        -9.2278
  15   1.0000      -0.327707        -8.9174
  16   1.0000      -0.201621        -5.4864
  17   0.0000       0.059233         1.6118
  18   0.0000       0.098533         2.6812
  19   0.0000       0.106009         2.8846
  20   0.0000       0.113107         3.0778
  21   0.0000       0.122923         3.3449

                 SPIN DOWN ORBITALS
  NO   OCC          E(Eh)            E(eV)
   0   1.0000     -10.188523      -277.2438
   1   1.0000     -10.168471      -276.6982
   2   1.0000     -10.167323      -276.6669
   3   1.0000     -10.165095      -276.6063
   4   1.0000      -0.785767       -21.3818
   5   1.0000      -0.669304       -18.2127
   6   1.0000      -0.637294       -17.3416
   7   1.0000      -0.540985       -14.7209
   8   1.0000      -0.457100       -12.4383
   9   1.0000      -0.429463       -11.6863
  10   1.0000      -0.414990       -11.2925
  11   1.0000      -0.383817       -10.4442
  12   1.0000      -0.373781       -10.1711
  13   1.0000      -0.337869        -9.1939
  14   1.0000      -0.334594        -9.1048
  15   1.0000      -0.325393        -8.8544
  16   0.0000      -0.044762        -1.2180
  17   0.0000       0.060801         1.6545
  18   0.0000       0.099914         2.7188
  19   0.0000       0.111939         3.0460
  20   0.0000       0.116910         3.1813

LOEWDIN ATOMIC CHARGES AND SPIN POPULATIONS
-------------------------------------------
   0 C :   -0.159890   -0.012903
   1 C :   -0.221222    0.978569
   2 C :   -0.309076    0.007599
   3 C :   -0.307413    0.049437
   4 H :    0.113537    0.020442
   5 H :    0.111446   -0.025818
   6 H :    0.113190   -0.026203
   7 H :    0.111749    0.000540
   8 H :    0.109365   -0.000182
   9 H :    0.109904   -0.000006
  10 H :    0.109351    0.000187
  11 H :    0.109997    0.000036
  12 H :    0.109063    0.008304

  Mayer bond orders larger than 0.100000
B(  0-C ,  1-C ) :   1.0825 B(  0-C ,  2-C ) :   1.0961 B(  0-C ,  3-C ) :   1.0760
B(  0-C ,  4-H ) :   0.9104 B(  1-C ,  5-H ) :   0.9411 B(  1-C ,  6-H ) :   0.9416
B(  2-C ,  7-H ) :   0.9598 B(  2-C ,  8-H ) :   0.9550 B(  2-C ,  9-H ) :   0.9581
B(  3-C , 10-H ) :   0.9571 B(  3-C , 11-H ) :   0.9591 B(  3-C , 12-H ) :   0.9535

Dispersion correction           -0.014385673
FINAL SINGLE POINT ENERGY      -157.545001491080

DIPOLE MOMENT
-------------
                                X             Y             Z
Electronic contribution:     -0.66471       1.08641       0.23675
Nuclear contribution   :      0.68839      -1.15385      -0.18487
                        -----------------------------------------
Total Dipole Moment    :      0.02367      -0.06744       0.05188
                        -----------------------------------------
Magnitude (a.u.)       :      0.08832
Magnitude (Debye)      :      0.22448

Rotational constants in cm-1:     0.274632     0.261805     0.154862
Rotational constants in MHz :  8233.263600  7848.703983  4642.640549

                             ****ORCA TERMINATED NORMALLY****
TOTAL RUN TIME: 0 days 2 hours 30 minutes 28 seconds 921 msec
