                         Program Version 4.2.1 -  RELEASE  -
|  1> ! UKS B3LYP def2-SV(P) def2/J D3BJ Opt
|  2> %scf Convergence VeryTight
|  3> SmearTemp 2000
|  4> maxiter 500
|  5> end
|  6> *xyz 0 2
|  7> C 0.065938 -0.016435 -0.305895
|  8> C -1.209786 -0.820465 -0.109793
|  9> C 1.250622 -0.635312 0.370333
| 10> C -0.123539 1.43293 0.046074
| 11> H 0.269424 -0.055465 -1.40549
| 12> H -1.421246 -1.014355 0.958372
| 13> H -1.157502 -1.762487 -0.712309
| 14> H 1.417615 -1.64138 -0.061949
| 15> H 2.143556 -0.033596 0.06474
| 16> H 1.216795 -0.612873 1.467722
| 17> H -0.950459 1.821362 -0.575084
| 18> H 0.806183 1.962775 -0.282903
| 19> H -0.28748 1.591521 1.138588
| 20> *
| 21>
| 22>                          ****END OF INPUT****
 Total Charge           Charge          ....    0
 Multiplicity           Mult            ....    2
 Number of Electrons    NEL             ....   33
Dispersion correction           -0.014615750
FINAL SINGLE POINT ENERGY      -157.530008447473
Dispersion correction            ... done
Dispersion correction           -0.014428297
FINAL SINGLE POINT ENERGY      -157.539534145998
Dispersion correction            ... done
Dispersion correction           -0.014393339
FINAL SINGLE POINT ENERGY      -157.543336619658
Dispersion correction            ... done
FINAL SINGLE POINT ENERGY      -157.544408107508
FINAL SINGLE POINT ENERGY      -157.544709267767
FINAL SINGLE POINT ENERGY      -157.544875125559
FINAL SINGLE POINT ENERGY      -157.544950796210
FINAL SINGLE POINT ENERGY      -157.544975910721
FINAL SINGLE POINT ENERGY      -157.544988064438
FINAL SINGLE POINT ENERGY      -157.544998208357
FINAL SINGLE POINT ENERGY      -157.545026938974
FINAL SINGLE POINT ENERGY      -157.545028519913
FINAL SINGLE POINT ENERGY      -157.545080050970
FINAL SINGLE POINT ENERGY      -157.545154624431
FINAL SINGLE POINT ENERGY      -157.545228139618
FINAL SINGLE POINT ENERGY      -157.545282140371
FINAL SINGLE POINT ENERGY      -157.545299539819
Dispersion correction            ... done
Dispersion correction           -0.014375414
FINAL SINGLE POINT ENERGY      -157.545291432401
Dispersion correction            ... done
Dispersion correction           -0.014375919
FINAL SINGLE POINT ENERGY      -157.545289386908
Dispersion correction            ... done
                    ***********************HURRAY********************

CARTESIAN COORDINATES (ANGSTROEM)
---------------------------------
  C      0.088009   -0.051240   -0.328719
  C     -1.098021   -0.907519   -0.016045
  C      1.388754   -0.645381    0.235148
  C     -0.117389    1.399185    0.142868
  H      0.202314   -0.013093   -1.438396
  H     -2.113191   -0.498559   -0.086689
  H     -0.989030   -1.987568    0.139003
  H      1.551456   -1.674521   -0.133449
  H      2.263701   -0.037959   -0.059846
  H      1.355131   -0.682554    1.340140
  H     -1.039829    1.832542   -0.284746
  H      0.730879    2.039540   -0.161685
  H     -0.202662    1.443348    1.244823

 Multiplicity           Mult            ....    2
 Number of Electrons    NEL             ....   33
 Basis Dimension        Dim             ....   74

ORBITAL ENERGIES
----------------
                 SPIN UP ORBITALS
  NO   OCC          E(Eh)            E(eV)
   0   1.0000     -10.188620      -277.2465
   1   1.0000     -10.180389      -277.0225
   2   1.0000     -10.168839      -276.7082
   3   1.0000     -10.168360      -276.6951
   4   1.0000      -0.793718       -21.5982
   5   1.0000      -0.671687       -18.2775
   6   1.0000      -0.661495       -18.0002
   7   1.0000      -0.549060       -14.9407
   8   1.0000      -0.456110       -12.4114
   9   1.0000      -0.439165       -11.9503
  10   1.0000      -0.430681       -11.7194
  11   1.0000      -0.382629       -10.4119
  12   1.0000      -0.367719       -10.0061
  13   1.0000      -0.347283        -9.4501
  14   1.0000      -0.338357        -9.2072
  15   1.0000      -0.332654        -9.0520
  16   1.0000      -0.201720        -5.4891
  17   0.0000       0.058891         1.6025
  18   0.0000       0.105770         2.8781
  19   0.0000       0.107450         2.9239
  20   0.0000       0.107929         2.9369
  21   0.0000       0.123028         3.3478

                 SPIN DOWN ORBITALS
  NO   OCC          E(Eh)            E(eV)
   0   1.0000     -10.189585      -277.2727
   1   1.0000     -10.168318      -276.6940
   2   1.0000     -10.168042      -276.6865
   3   1.0000     -10.165919      -276.6287
   4   1.0000      -0.786729       -21.4080
   5   1.0000      -0.671056       -18.2604
   6   1.0000      -0.638010       -17.3611
   7   1.0000      -0.538949       -14.6655
   8   1.0000      -0.450116       -12.2483
   9   1.0000      -0.433443       -11.7946
  10   1.0000      -0.428201       -11.6519
  11   1.0000      -0.382101       -10.3975
  12   1.0000      -0.365116        -9.9353
  13   1.0000      -0.340687        -9.2706
  14   1.0000      -0.331639        -9.0243
  15   1.0000      -0.330203        -8.9853
  16   0.0000      -0.045644        -1.2420
  17   0.0000       0.061413         1.6711
  18   0.0000       0.107361         2.9214
  19   0.0000       0.108220         2.9448
  20   0.0000       0.115179         3.1342

LOEWDIN ATOMIC CHARGES AND SPIN POPULATIONS
-------------------------------------------
   0 C :   -0.160437   -0.013620
   1 C :   -0.224655    0.979478
   2 C :   -0.308652    0.011234
   3 C :   -0.308703    0.017693
   4 H :    0.117313    0.053414
   5 H :    0.111464   -0.025649
   6 H :    0.112602   -0.025844
   7 H :    0.110276   -0.000375
   8 H :    0.109239    0.000191
   9 H :    0.111060    0.001206
  10 H :    0.110158   -0.000432
  11 H :    0.109320    0.001398
  12 H :    0.111017    0.001307

  Mayer bond orders larger than 0.100000
B(  0-C ,  1-C ) :   1.0789 B(  0-C ,  2-C ) :   1.0933 B(  0-C ,  3-C ) :   1.0891
B(  0-C ,  4-H ) :   0.8983 B(  1-C ,  5-H ) :   0.9414 B(  1-C ,  6-H ) :   0.9412
B(  2-C ,  7-H ) :   0.9561 B(  2-C ,  8-H ) :   0.9577 B(  2-C ,  9-H ) :   0.9589
B(  3-C , 10-H ) :   0.9577 B(  3-C , 11-H ) :   0.9571 B(  3-C , 12-H ) :   0.9588

Dispersion correction           -0.014375448
FINAL SINGLE POINT ENERGY      -157.545288028532

DIPOLE MOMENT
-------------
                                X             Y             Z
Electronic contribution:     -0.87247      -0.66374      -0.46847
Nuclear contribution   :      0.92389       0.69630       0.38222
                        -----------------------------------------
Total Dipole Moment    :      0.05142       0.03256      -0.08625
                        -----------------------------------------
Magnitude (a.u.)       :      0.10556
Magnitude (Debye)      :      0.26830

Rotational constants in cm-1:     0.278659     0.262071     0.152979
Rotational constants in MHz :  8353.994112  7856.699923  4586.208009

                             ****ORCA TERMINATED NORMALLY****
TOTAL RUN TIME: 0 days 2 hours 33 minutes 57 seconds 768 msec
