                         Program Version 4.2.1 -  RELEASE  -
|  1> ! UKS B3LYP def2-SV(P) def2/J D3BJ Opt
|  2> %scf Convergence VeryTight
|  3> SmearTemp 2000
|  4> maxiter 500
|  5> end
|  6> *xyz 0 2
|  7> C 0.089792 -0.07288 0.485406
|  8> C 0.198814 1.413693 0.293692
|  9> C -1.328367 -0.476455 0.097331
| 10> C 1.124415 -0.866223 -0.251913
| 11> H 0.273194 -0.252818 1.575996
| 12> H 1.21457 1.804462 0.446761
| 13> H -0.557889 1.87288 0.97997
| 14> H -1.778577 -0.958997 0.979185
| 15> H -1.231066 -1.130487 -0.782196
| 16> H -1.949483 0.382719 -0.188123
| 17> H 1.681171 -1.580027 0.408605
| 18> H 0.583725 -1.523462 -0.980085
| 19> H 1.858202 -0.262108 -0.80596
| 20> *
| 21>
| 22>                          ****END OF INPUT****
 Total Charge           Charge          ....    0
 Multiplicity           Mult            ....    2
 Number of Electrons    NEL             ....   33
Dispersion correction           -0.014526339
FINAL SINGLE POINT ENERGY      -157.514922882875
Dispersion correction            ... done
Dispersion correction           -0.014196568
FINAL SINGLE POINT ENERGY      -157.527747217765
Dispersion correction            ... done
Dispersion correction           -0.014119364
FINAL SINGLE POINT ENERGY      -157.531669977143
Dispersion correction            ... done
FINAL SINGLE POINT ENERGY      -157.533297861032
FINAL SINGLE POINT ENERGY      -157.534314953031
FINAL SINGLE POINT ENERGY      -157.535335107863
FINAL SINGLE POINT ENERGY      -157.536436050334
FINAL SINGLE POINT ENERGY      -157.537543092705
FINAL SINGLE POINT ENERGY      -157.538668359438
FINAL SINGLE POINT ENERGY      -157.539846309134
FINAL SINGLE POINT ENERGY      -157.541103522522
FINAL SINGLE POINT ENERGY      -157.542352000243
FINAL SINGLE POINT ENERGY      -157.543398229024
FINAL SINGLE POINT ENERGY      -157.544247524690
FINAL SINGLE POINT ENERGY      -157.544836962461
FINAL SINGLE POINT ENERGY      -157.545191715098
FINAL SINGLE POINT ENERGY      -157.545303488298
Dispersion correction            ... done
Dispersion correction           -0.014376058
FINAL SINGLE POINT ENERGY      -157.545308800845
Dispersion correction            ... done
Dispersion correction           -0.014374121
FINAL SINGLE POINT ENERGY      -157.545310499664
Dispersion correction            ... done
                    ***********************HURRAY********************

CARTESIAN COORDINATES (ANGSTROEM)
---------------------------------
  C      0.087249   -0.024802    0.536994
  C      0.235709    1.414753    0.158939
  C     -1.334749   -0.542536    0.258523
  C      1.149859   -0.906153   -0.138847
  H      0.248534   -0.109781    1.638367
  H      1.214022    1.825533   -0.117101
  H     -0.592050    2.118032    0.311386
  H     -1.453523   -1.584865    0.606521
  H     -1.554827   -0.516475   -0.824816
  H     -2.093318    0.074604    0.773112
  H      1.076668   -1.953618    0.205874
  H      1.024712   -0.898545   -1.238086
  H      2.170216   -0.545851    0.087804

 Multiplicity           Mult            ....    2
 Number of Electrons    NEL             ....   33
 Basis Dimension        Dim             ....   74

ORBITAL ENERGIES
----------------
                 SPIN UP ORBITALS
  NO   OCC          E(Eh)            E(eV)
   0   1.0000     -10.188438      -277.2415
   1   1.0000     -10.180142      -277.0157
   2   1.0000     -10.168465      -276.6980
   3   1.0000     -10.168262      -276.6925
   4   1.0000      -0.793678       -21.5971
   5   1.0000      -0.671728       -18.2787
   6   1.0000      -0.661474       -17.9996
   7   1.0000      -0.548966       -14.9381
   8   1.0000      -0.456062       -12.4101
   9   1.0000      -0.439241       -11.9524
  10   1.0000      -0.430510       -11.7148
  11   1.0000      -0.382576       -10.4104
  12   1.0000      -0.367653       -10.0043
  13   1.0000      -0.347147        -9.4463
  14   1.0000      -0.338270        -9.2048
  15   1.0000      -0.332691        -9.0530
  16   1.0000      -0.201952        -5.4954
  17   0.0000       0.058670         1.5965
  18   0.0000       0.105731         2.8771
  19   0.0000       0.107244         2.9183
  20   0.0000       0.108197         2.9442
  21   0.0000       0.123084         3.3493

                 SPIN DOWN ORBITALS
  NO   OCC          E(Eh)            E(eV)
   0   1.0000     -10.189402      -277.2677
   1   1.0000     -10.168134      -276.6890
   2   1.0000     -10.167756      -276.6787
   3   1.0000     -10.165662      -276.6217
   4   1.0000      -0.786678       -21.4066
   5   1.0000      -0.671101       -18.2616
   6   1.0000      -0.638025       -17.3616
   7   1.0000      -0.538843       -14.6627
   8   1.0000      -0.450038       -12.2462
   9   1.0000      -0.433537       -11.7971
  10   1.0000      -0.428030       -11.6473
  11   1.0000      -0.382041       -10.3959
  12   1.0000      -0.365052        -9.9336
  13   1.0000      -0.340553        -9.2669
  14   1.0000      -0.331576        -9.0227
  15   1.0000      -0.330215        -8.9856
  16   0.0000      -0.045882        -1.2485
  17   0.0000       0.061258         1.6669
  18   0.0000       0.107499         2.9252
  19   0.0000       0.108099         2.9415
  20   0.0000       0.115239         3.1358

LOEWDIN ATOMIC CHARGES AND SPIN POPULATIONS
-------------------------------------------
   0 C :   -0.159984   -0.013612
   1 C :   -0.224434    0.978923
   2 C :   -0.307616    0.017184
   3 C :   -0.308492    0.011629
   4 H :    0.116622    0.053822
   5 H :    0.112196   -0.025692
   6 H :    0.111817   -0.025566
   7 H :    0.108958    0.001313
   8 H :    0.110400    0.001327
   9 H :    0.110296   -0.000429
  10 H :    0.109251    0.000270
  11 H :    0.111116    0.001222
  12 H :    0.109870   -0.000391

  Mayer bond orders larger than 0.100000
B(  0-C ,  1-C ) :   1.0795 B(  0-C ,  2-C ) :   1.0894 B(  0-C ,  3-C ) :   1.0916
B(  0-C ,  4-H ) :   0.8979 B(  1-C ,  5-H ) :   0.9415 B(  1-C ,  6-H ) :   0.9404
B(  2-C ,  7-H ) :   0.9563 B(  2-C ,  8-H ) :   0.9595 B(  2-C ,  9-H ) :   0.9572
B(  3-C , 10-H ) :   0.9572 B(  3-C , 11-H ) :   0.9590 B(  3-C , 12-H ) :   0.9579

Dispersion correction           -0.014373722
FINAL SINGLE POINT ENERGY      -157.545311502251

DIPOLE MOMENT
-------------
                                X             Y             Z
Electronic contribution:      0.21865       1.09350       0.40352
Nuclear contribution   :     -0.21325      -1.15123      -0.30940
                        -----------------------------------------
Total Dipole Moment    :      0.00540      -0.05773       0.09412
                        -----------------------------------------
Magnitude (a.u.)       :      0.11055
Magnitude (Debye)      :      0.28098

Rotational constants in cm-1:     0.278876     0.261902     0.152948
Rotational constants in MHz :  8360.493848  7851.637871  4585.265717

                             ****ORCA TERMINATED NORMALLY****
TOTAL RUN TIME: 0 days 2 hours 25 minutes 2 seconds 860 msec
