                         Program Version 4.2.1 -  RELEASE  -
|  1> ! UKS B3LYP def2-SV(P) def2/J D3BJ Opt
|  2> %scf Convergence VeryTight
|  3> SmearTemp 2000
|  4> maxiter 500
|  5> end
|  6> *xyz 0 2
|  7> C 0.024603 0.214771 -0.372798
|  8> C -1.024911 0.970544 0.382899
|  9> C 1.381332 0.232782 0.271012
| 10> C -0.37258 -1.246405 -0.453696
| 11> H 0.139795 0.657493 -1.39354
| 12> H -0.932805 2.062795 0.320312
| 13> H -2.012992 0.658537 -0.029407
| 14> H 1.743671 1.243255 0.527407
| 15> H 2.089131 -0.181837 -0.491799
| 16> H 1.45545 -0.419731 1.171073
| 17> H -0.035461 -1.721106 -1.394692
| 18> H -1.47903 -1.373403 -0.426595
| 19> H 0.012885 -1.757647 0.455316
| 20> *
| 21>
| 22>                          ****END OF INPUT****
 Total Charge           Charge          ....    0
 Multiplicity           Mult            ....    2
 Number of Electrons    NEL             ....   33
Dispersion correction           -0.014599603
FINAL SINGLE POINT ENERGY      -157.523559422514
Dispersion correction            ... done
Dispersion correction           -0.014336961
FINAL SINGLE POINT ENERGY      -157.534977104451
Dispersion correction            ... done
Dispersion correction           -0.014274054
FINAL SINGLE POINT ENERGY      -157.539825180968
Dispersion correction            ... done
FINAL SINGLE POINT ENERGY      -157.542150544572
FINAL SINGLE POINT ENERGY      -157.543426108180
FINAL SINGLE POINT ENERGY      -157.544322137717
FINAL SINGLE POINT ENERGY      -157.544929836221
FINAL SINGLE POINT ENERGY      -157.545210286763
FINAL SINGLE POINT ENERGY      -157.545248922058
FINAL SINGLE POINT ENERGY      -157.545266450639
FINAL SINGLE POINT ENERGY      -157.545277201011
Dispersion correction            ... done
Dispersion correction           -0.014374507
FINAL SINGLE POINT ENERGY      -157.545281613624
Dispersion correction            ... done
Dispersion correction           -0.014375808
FINAL SINGLE POINT ENERGY      -157.545284502179
Dispersion correction            ... done
                    ***********************HURRAY********************

CARTESIAN COORDINATES (ANGSTROEM)
---------------------------------
  C      0.003783    0.165698   -0.420795
  C     -1.001337    0.987740    0.321510
  C      1.411710    0.305519    0.184343
  C     -0.422137   -1.307538   -0.518636
  H      0.064997    0.556694   -1.464666
  H     -0.730441    1.972980    0.718858
  H     -2.059174    0.699323    0.343732
  H      1.723765    1.364755    0.232673
  H      2.159084   -0.242429   -0.417831
  H      1.435789   -0.100609    1.212281
  H      0.295025   -1.890148   -1.124845
  H     -1.418666   -1.404182   -0.986797
  H     -0.473311   -1.767754    0.485665

 Multiplicity           Mult            ....    2
 Number of Electrons    NEL             ....   33
 Basis Dimension        Dim             ....   74

ORBITAL ENERGIES
----------------
                 SPIN UP ORBITALS
  NO   OCC          E(Eh)            E(eV)
   0   1.0000     -10.188292      -277.2375
   1   1.0000     -10.179796      -277.0063
   2   1.0000     -10.168232      -276.6917
   3   1.0000     -10.167961      -276.6843
   4   1.0000      -0.793666       -21.5967
   5   1.0000      -0.671620       -18.2757
   6   1.0000      -0.661388       -17.9973
   7   1.0000      -0.548882       -14.9358
   8   1.0000      -0.456039       -12.4095
   9   1.0000      -0.438953       -11.9445
  10   1.0000      -0.430532       -11.7154
  11   1.0000      -0.382389       -10.4053
  12   1.0000      -0.367667       -10.0047
  13   1.0000      -0.347067        -9.4442
  14   1.0000      -0.338196        -9.2028
  15   1.0000      -0.332548        -9.0491
  16   1.0000      -0.201607        -5.4860
  17   0.0000       0.059171         1.6101
  18   0.0000       0.105316         2.8658
  19   0.0000       0.107610         2.9282
  20   0.0000       0.108058         2.9404
  21   0.0000       0.123674         3.3653

                 SPIN DOWN ORBITALS
  NO   OCC          E(Eh)            E(eV)
   0   1.0000     -10.189259      -277.2638
   1   1.0000     -10.167707      -276.6774
   2   1.0000     -10.167647      -276.6757
   3   1.0000     -10.165288      -276.6115
   4   1.0000      -0.786667       -21.4063
   5   1.0000      -0.670986       -18.2585
   6   1.0000      -0.637893       -17.3580
   7   1.0000      -0.538775       -14.6608
   8   1.0000      -0.450018       -12.2456
   9   1.0000      -0.433254       -11.7894
  10   1.0000      -0.428056       -11.6480
  11   1.0000      -0.381853       -10.3908
  12   1.0000      -0.365052        -9.9336
  13   1.0000      -0.340488        -9.2652
  14   1.0000      -0.331566        -9.0224
  15   1.0000      -0.330000        -8.9797
  16   0.0000      -0.045436        -1.2364
  17   0.0000       0.061706         1.6791
  18   0.0000       0.106983         2.9112
  19   0.0000       0.108234         2.9452
  20   0.0000       0.115559         3.1445

LOEWDIN ATOMIC CHARGES AND SPIN POPULATIONS
-------------------------------------------
   0 C :   -0.159760   -0.013588
   1 C :   -0.223890    0.979047
   2 C :   -0.307913    0.017891
   3 C :   -0.308087    0.011148
   4 H :    0.116195    0.053515
   5 H :    0.111308   -0.025536
   6 H :    0.112350   -0.025783
   7 H :    0.110077   -0.000422
   8 H :    0.109232    0.001387
   9 H :    0.110328    0.001362
  10 H :    0.109625    0.000133
  11 H :    0.110270   -0.000374
  12 H :    0.110266    0.001220

  Mayer bond orders larger than 0.100000
B(  0-C ,  1-C ) :   1.0829 B(  0-C ,  2-C ) :   1.0900 B(  0-C ,  3-C ) :   1.0927
B(  0-C ,  4-H ) :   0.8974 B(  1-C ,  5-H ) :   0.9401 B(  1-C ,  6-H ) :   0.9419
B(  2-C ,  7-H ) :   0.9581 B(  2-C ,  8-H ) :   0.9567 B(  2-C ,  9-H ) :   0.9586
B(  3-C , 10-H ) :   0.9577 B(  3-C , 11-H ) :   0.9571 B(  3-C , 12-H ) :   0.9585

Dispersion correction           -0.014376754
FINAL SINGLE POINT ENERGY      -157.545285902588

DIPOLE MOMENT
-------------
                                X             Y             Z
Electronic contribution:     -0.76181       0.90536      -0.08023
Nuclear contribution   :      0.80102      -0.90916      -0.02003
                        -----------------------------------------
Total Dipole Moment    :      0.03921      -0.00381      -0.10026
                        -----------------------------------------
Magnitude (a.u.)       :      0.10772
Magnitude (Debye)      :      0.27381

Rotational constants in cm-1:     0.278840     0.262066     0.153011
Rotational constants in MHz :  8359.404127  7856.546583  4587.162300

                             ****ORCA TERMINATED NORMALLY****
TOTAL RUN TIME: 0 days 1 hours 59 minutes 48 seconds 357 msec
