                         Program Version 4.2.1 -  RELEASE  -
|  1> ! UKS B3LYP def2-SV(P) def2/J D3BJ Opt
|  2> %scf Convergence VeryTight
|  3> SmearTemp 2000
|  4> maxiter 500
|  5> end
|  6> *xyz 0 1
|  7> C -3.8053 1.374733 0.308099
|  8> C -4.087477 0.048356 -0.334001
|  9> C -2.876927 -0.824053 -0.488204
| 10> C -1.632852 -0.258142 0.12959
| 11> C -0.464677 -1.125876 -0.325246
| 12> C 0.620098 -1.187067 0.713534
| 13> C 1.635161 -0.080492 0.525963
| 14> C 2.563961 -0.391231 -0.616863
| 15> C 3.969658 0.122167 -0.341472
| 16> C 3.951012 1.466781 0.348404
| 17> H -3.715824 2.17217 -0.473089
| 18> H -4.713232 1.638559 0.90796
| 19> H -2.930599 1.371957 0.981448
| 20> H -4.495276 0.236481 -1.349003
| 21> H -4.881777 -0.511491 0.212104
| 22> H -2.640446 -1.04906 -1.556029
| 23> H -3.055597 -1.814394 -0.000165
| 24> H -1.408391 0.768358 -0.255616
| 25> H -1.76411 -0.27967 1.227673
| 26> H -0.818216 -2.139702 -0.644331
| 27> H 0.00108 -0.691158 -1.245661
| 28> H 1.187088 -2.143533 0.587899
| 29> H 0.20436 -1.179662 1.74136
| 30> H 2.256458 0.037836 1.429353
| 31> H 1.106679 0.8712 0.335389
| 32> H 2.212753 0.030063 -1.572098
| 33> H 2.673838 -1.486222 -0.774156
| 34> H 4.528287 0.242513 -1.295034
| 35> H 4.521599 -0.652241 0.244036
| 36> H 2.924862 1.855598 0.460674
| 37> H 4.418864 1.344451 1.357795
| 38> H 4.514942 2.232769 -0.240311
| 39> *
| 40>
| 41>                          ****END OF INPUT****
 Total Charge           Charge          ....    0
 Multiplicity           Mult            ....    1
 Number of Electrons    NEL             ....   82
Dispersion correction           -0.047198239
FINAL SINGLE POINT ENERGY      -393.691073362645
Dispersion correction            ... done
Dispersion correction           -0.045243840
FINAL SINGLE POINT ENERGY      -393.713087434972
Dispersion correction            ... done
Dispersion correction           -0.044922254
FINAL SINGLE POINT ENERGY      -393.718874040821
Dispersion correction            ... done
FINAL SINGLE POINT ENERGY      -393.721906168450
FINAL SINGLE POINT ENERGY      -393.724171761168
FINAL SINGLE POINT ENERGY      -393.726175185551
FINAL SINGLE POINT ENERGY      -393.728085552789
FINAL SINGLE POINT ENERGY      -393.729890544010
FINAL SINGLE POINT ENERGY      -393.731546989895
FINAL SINGLE POINT ENERGY      -393.733040947388
FINAL SINGLE POINT ENERGY      -393.744525465292
FINAL SINGLE POINT ENERGY      -393.745549268870
FINAL SINGLE POINT ENERGY      -393.746507021668
FINAL SINGLE POINT ENERGY      -393.747313629243
FINAL SINGLE POINT ENERGY      -393.747929060468
FINAL SINGLE POINT ENERGY      -393.748317658223
FINAL SINGLE POINT ENERGY      -393.748449498536
Dispersion correction            ... done
Dispersion correction           -0.046282735
FINAL SINGLE POINT ENERGY      -393.748459509851
Dispersion correction            ... done
Dispersion correction           -0.046313450
FINAL SINGLE POINT ENERGY      -393.748466480690
Dispersion correction            ... done
                    ***********************HURRAY********************

CARTESIAN COORDINATES (ANGSTROEM)
---------------------------------
  C     -2.964281    1.953226   -0.319165
  C     -3.552589    0.546119   -0.176837
  C     -2.599512   -0.585394   -0.589148
  C     -1.336858   -0.701746    0.270973
  C     -0.444560   -1.883083   -0.123943
  C      0.786252   -2.080398    0.773300
  C      1.731235   -0.873369    0.871891
  C      2.298721   -0.407823   -0.474159
  C      3.343366    0.712556   -0.368636
  C      2.798487    2.029493    0.193584
  H     -2.611565    2.133580   -1.352579
  H     -3.716979    2.727191   -0.083580
  H     -2.105785    2.112370    0.357804
  H     -4.470799    0.476377   -0.789388
  H     -3.872461    0.385698    0.871456
  H     -2.305031   -0.444921   -1.648700
  H     -3.147608   -1.546649   -0.550824
  H     -0.757552    0.236819    0.199776
  H     -1.627552   -0.800804    1.336613
  H     -1.047144   -2.811836   -0.103315
  H     -0.126023   -1.758087   -1.176731
  H      1.356708   -2.954154    0.402383
  H      0.446825   -2.346806    1.792932
  H      2.572133   -1.137572    1.542221
  H      1.206056   -0.035512    1.364918
  H      1.474369   -0.063053   -1.128292
  H      2.752764   -1.277384   -0.988945
  H      3.764465    0.898749   -1.374560
  H      4.189216    0.365244    0.256709
  H      1.934358    2.385376   -0.399021
  H      2.462462    1.923862    1.240400
  H      3.568884    2.821930    0.172865

 Multiplicity           Mult            ....    1
 Number of Electrons    NEL             ....   82
 Basis Dimension        Dim             ....  184

ORBITAL ENERGIES
----------------
                 SPIN UP ORBITALS
  NO   OCC          E(Eh)            E(eV)
   0   1.0000     -10.172276      -276.8017
   1   1.0000     -10.171980      -276.7937
   2   1.0000     -10.169738      -276.7326
   3   1.0000     -10.169653      -276.7303
   4   1.0000     -10.169397      -276.7234
   5   1.0000     -10.168844      -276.7083
   6   1.0000     -10.168775      -276.7064
   7   1.0000     -10.168230      -276.6916
   8   1.0000     -10.166023      -276.6315
   9   1.0000     -10.165858      -276.6271
  10   1.0000      -0.802444       -21.8356
  11   1.0000      -0.783612       -21.3232
  12   1.0000      -0.756373       -20.5820
  13   1.0000      -0.717899       -19.5350
  14   1.0000      -0.678289       -18.4572
  15   1.0000      -0.643143       -17.5008
  16   1.0000      -0.611721       -16.6458
  17   1.0000      -0.571890       -15.5619
  18   1.0000      -0.556224       -15.1356
  19   1.0000      -0.538072       -14.6417
  20   1.0000      -0.471267       -12.8238
  21   1.0000      -0.462587       -12.5876
  22   1.0000      -0.443588       -12.0706
  23   1.0000      -0.443201       -12.0601
  24   1.0000      -0.428846       -11.6695
  25   1.0000      -0.420560       -11.4440
  26   1.0000      -0.409964       -11.1557
  27   1.0000      -0.392670       -10.6851
  28   1.0000      -0.379541       -10.3278
  29   1.0000      -0.376102       -10.2343
  30   1.0000      -0.370133       -10.0718
  31   1.0000      -0.355220        -9.6660
  32   1.0000      -0.346248        -9.4219
  33   1.0000      -0.338643        -9.2149
  34   1.0000      -0.332890        -9.0584
  35   1.0000      -0.322310        -8.7705
  36   1.0000      -0.320338        -8.7168
  37   1.0000      -0.316527        -8.6131
  38   1.0000      -0.305492        -8.3129
  39   1.0000      -0.303344        -8.2544
  40   1.0000      -0.301951        -8.2165
  41   0.0000       0.047175         1.2837
  42   0.0000       0.066758         1.8166
  43   0.0000       0.067503         1.8369
  44   0.0000       0.074184         2.0186
  45   0.0000       0.085326         2.3219

                 SPIN DOWN ORBITALS
  NO   OCC          E(Eh)            E(eV)
   0   1.0000     -10.172276      -276.8017
   1   1.0000     -10.171980      -276.7937
   2   1.0000     -10.169738      -276.7326
   3   1.0000     -10.169653      -276.7303
   4   1.0000     -10.169397      -276.7234
   5   1.0000     -10.168844      -276.7083
   6   1.0000     -10.168775      -276.7064
   7   1.0000     -10.168230      -276.6916
   8   1.0000     -10.166023      -276.6315
   9   1.0000     -10.165858      -276.6271
  10   1.0000      -0.802444       -21.8356
  11   1.0000      -0.783612       -21.3232
  12   1.0000      -0.756373       -20.5820
  13   1.0000      -0.717899       -19.5350
  14   1.0000      -0.678289       -18.4572
  15   1.0000      -0.643143       -17.5008
  16   1.0000      -0.611721       -16.6458
  17   1.0000      -0.571890       -15.5619
  18   1.0000      -0.556224       -15.1356
  19   1.0000      -0.538072       -14.6417
  20   1.0000      -0.471267       -12.8238
  21   1.0000      -0.462587       -12.5876
  22   1.0000      -0.443588       -12.0706
  23   1.0000      -0.443201       -12.0601
  24   1.0000      -0.428846       -11.6695
  25   1.0000      -0.420560       -11.4440
  26   1.0000      -0.409964       -11.1557
  27   1.0000      -0.392670       -10.6851
  28   1.0000      -0.379541       -10.3278
  29   1.0000      -0.376102       -10.2343
  30   1.0000      -0.370133       -10.0718
  31   1.0000      -0.355220        -9.6660
  32   1.0000      -0.346248        -9.4219
  33   1.0000      -0.338643        -9.2149
  34   1.0000      -0.332890        -9.0584
  35   1.0000      -0.322310        -8.7705
  36   1.0000      -0.320338        -8.7168
  37   1.0000      -0.316527        -8.6131
  38   1.0000      -0.305492        -8.3129
  39   1.0000      -0.303344        -8.2544
  40   1.0000      -0.301951        -8.2165
  41   0.0000       0.047175         1.2837
  42   0.0000       0.066758         1.8166
  43   0.0000       0.067503         1.8369
  44   0.0000       0.074184         2.0186
  45   0.0000       0.085326         2.3219

LOEWDIN ATOMIC CHARGES AND SPIN POPULATIONS
-------------------------------------------
   0 C :   -0.323428    0.000000
   1 C :   -0.216464    0.000000
   2 C :   -0.208853    0.000000
   3 C :   -0.215294    0.000000
   4 C :   -0.212010    0.000000
   5 C :   -0.205922    0.000000
   6 C :   -0.216186    0.000000
   7 C :   -0.214641    0.000000
   8 C :   -0.214360    0.000000
   9 C :   -0.324958    0.000000
  10 H :    0.108379    0.000000
  11 H :    0.112030    0.000000
  12 H :    0.108974    0.000000
  13 H :    0.107696    0.000000
  14 H :    0.105274    0.000000
  15 H :    0.103745    0.000000
  16 H :    0.105210    0.000000
  17 H :    0.106150    0.000000
  18 H :    0.104388    0.000000
  19 H :    0.106300    0.000000
  20 H :    0.105470    0.000000
  21 H :    0.105210    0.000000
  22 H :    0.105268    0.000000
  23 H :    0.106978    0.000000
  24 H :    0.106564    0.000000
  25 H :    0.105382    0.000000
  26 H :    0.106320    0.000000
  27 H :    0.106840    0.000000
  28 H :    0.104923    0.000000
  29 H :    0.108963    0.000000
  30 H :    0.109740    0.000000
  31 H :    0.112310    0.000000

  Mayer bond orders larger than 0.100000
B(  0-C ,  1-C ) :   1.1297 B(  0-C , 10-H ) :   0.9608 B(  0-C , 11-H ) :   0.9580
B(  0-C , 12-H ) :   0.9553 B(  1-C ,  2-C ) :   1.1122 B(  1-C , 13-H ) :   0.9354
B(  1-C , 14-H ) :   0.9331 B(  2-C ,  3-C ) :   1.1161 B(  2-C , 15-H ) :   0.9277
B(  2-C , 16-H ) :   0.9313 B(  3-C ,  4-C ) :   1.1198 B(  3-C , 17-H ) :   0.9144
B(  3-C , 18-H ) :   0.9292 B(  4-C ,  5-C ) :   1.1091 B(  4-C , 19-H ) :   0.9282
B(  4-C , 20-H ) :   0.9223 B(  5-C ,  6-C ) :   1.1145 B(  5-C , 21-H ) :   0.9280
B(  5-C , 22-H ) :   0.9270 B(  6-C ,  7-C ) :   1.1143 B(  6-C , 23-H ) :   0.9268
B(  6-C , 24-H ) :   0.9192 B(  7-C ,  8-C ) :   1.1132 B(  7-C , 25-H ) :   0.9219
B(  7-C , 26-H ) :   0.9303 B(  8-C ,  9-C ) :   1.1301 B(  8-C , 27-H ) :   0.9358
B(  8-C , 28-H ) :   0.9336 B(  9-C , 29-H ) :   0.9600 B(  9-C , 30-H ) :   0.9555
B(  9-C , 31-H ) :   0.9581

Dispersion correction           -0.046330843
FINAL SINGLE POINT ENERGY      -393.748468654819

DIPOLE MOMENT
-------------
                                X             Y             Z
Electronic contribution:      0.14882      -3.26723       0.14707
Nuclear contribution   :     -0.15271       3.27026      -0.14663
                        -----------------------------------------
Total Dipole Moment    :     -0.00390       0.00302       0.00043
                        -----------------------------------------
Magnitude (a.u.)       :      0.00495
Magnitude (Debye)      :      0.01259

Rotational constants in cm-1:     0.050328     0.018746     0.014713
Rotational constants in MHz :  1508.792547   561.987198   441.084455

                             ****ORCA TERMINATED NORMALLY****
TOTAL RUN TIME: 0 days 2 hours 40 minutes 10 seconds 234 msec
