                         Program Version 4.2.1 -  RELEASE  -
|  1> ! UKS B3LYP def2-SV(P) def2/J D3BJ Opt
|  2> %scf Convergence VeryTight
|  3> SmearTemp 2000
|  4> maxiter 500
|  5> end
|  6> *xyz 0 1
|  7> C 2.492067 -0.10199 0.750943
|  8> C 1.964945 0.472489 -0.525173
|  9> C 0.621673 -0.016878 -0.937597
| 10> C -0.355391 -0.223362 0.185671
| 11> C -1.743388 0.026683 -0.398727
| 12> C -2.830867 -0.117776 0.625658
| 13> H 1.667984 -0.324057 1.439536
| 14> H 3.108246 -1.002244 0.563589
| 15> H 3.133691 0.686736 1.213678
| 16> H 2.689622 0.190186 -1.330909
| 17> H 1.940868 1.579374 -0.497896
| 18> H 0.691511 -0.949482 -1.55262
| 19> H 0.194223 0.743384 -1.640306
| 20> H -0.199371 0.443689 1.046249
| 21> H -0.349703 -1.301888 0.457392
| 22> H -1.692843 1.050951 -0.812386
| 23> H -1.874385 -0.711664 -1.229107
| 24> H -3.508627 0.76658 0.662855
| 25> H -3.482032 -0.97446 0.336336
| 26> H -2.468223 -0.335904 1.642814
| 27> *
| 28>
| 29>                          ****END OF INPUT****
 Total Charge           Charge          ....    0
 Multiplicity           Mult            ....    1
 Number of Electrons    NEL             ....   50
Dispersion correction           -0.025264292
FINAL SINGLE POINT ENERGY      -236.693562271021
Dispersion correction            ... done
Dispersion correction           -0.024431567
FINAL SINGLE POINT ENERGY      -236.706701492128
Dispersion correction            ... done
Dispersion correction           -0.024367955
FINAL SINGLE POINT ENERGY      -236.710275205544
Dispersion correction            ... done
FINAL SINGLE POINT ENERGY      -236.712391060403
FINAL SINGLE POINT ENERGY      -236.713890548696
FINAL SINGLE POINT ENERGY      -236.715149107228
FINAL SINGLE POINT ENERGY      -236.716286771371
FINAL SINGLE POINT ENERGY      -236.717296771299
FINAL SINGLE POINT ENERGY      -236.718156395129
FINAL SINGLE POINT ENERGY      -236.718902838563
FINAL SINGLE POINT ENERGY      -236.719606005663
FINAL SINGLE POINT ENERGY      -236.720313270072
FINAL SINGLE POINT ENERGY      -236.721041541967
FINAL SINGLE POINT ENERGY      -236.721757791470
FINAL SINGLE POINT ENERGY      -236.722393102024
FINAL SINGLE POINT ENERGY      -236.722890565219
FINAL SINGLE POINT ENERGY      -236.723188966938
Dispersion correction            ... done
Dispersion correction           -0.024507552
FINAL SINGLE POINT ENERGY      -236.723269456591
Dispersion correction            ... done
Dispersion correction           -0.024506647
FINAL SINGLE POINT ENERGY      -236.723273440465
Dispersion correction            ... done
                    ***********************HURRAY********************

CARTESIAN COORDINATES (ANGSTROEM)
---------------------------------
  C      2.622559   -0.501877    0.591117
  C      2.052758    0.573375   -0.338990
  C      0.661944    0.251851   -0.904806
  C     -0.450770    0.153062    0.144254
  C     -1.837439   -0.092230   -0.459358
  C     -2.945850   -0.195465    0.590391
  H      2.010590   -0.624922    1.502390
  H      2.665658   -1.484033    0.083196
  H      3.647527   -0.247062    0.915046
  H      2.750283    0.725966   -1.184012
  H      2.010127    1.540901    0.199327
  H      0.711699   -0.698976   -1.473419
  H      0.387008    1.032556   -1.640596
  H     -0.472384    1.087879    0.741223
  H     -0.223082   -0.659430    0.860685
  H     -2.074789    0.724340   -1.168997
  H     -1.811100   -1.020430   -1.063771
  H     -3.932087   -0.373043    0.124809
  H     -2.752813   -1.025943    1.295158
  H     -3.019837    0.733847    1.186353

 Multiplicity           Mult            ....    1
 Number of Electrons    NEL             ....   50
 Basis Dimension        Dim             ....  112

ORBITAL ENERGIES
----------------
                 SPIN UP ORBITALS
  NO   OCC          E(Eh)            E(eV)
   0   1.0000     -10.172179      -276.7991
   1   1.0000     -10.172105      -276.7971
   2   1.0000     -10.170224      -276.7459
   3   1.0000     -10.169683      -276.7311
   4   1.0000     -10.166136      -276.6346
   5   1.0000     -10.165241      -276.6103
   6   1.0000      -0.793366       -21.5886
   7   1.0000      -0.753786       -20.5116
   8   1.0000      -0.693486       -18.8707
   9   1.0000      -0.632480       -17.2106
  10   1.0000      -0.575883       -15.6706
  11   1.0000      -0.554529       -15.0895
  12   1.0000      -0.468622       -12.7518
  13   1.0000      -0.446744       -12.1565
  14   1.0000      -0.432590       -11.7714
  15   1.0000      -0.410985       -11.1835
  16   1.0000      -0.403923       -10.9913
  17   1.0000      -0.383514       -10.4360
  18   1.0000      -0.365449        -9.9444
  19   1.0000      -0.354736        -9.6529
  20   1.0000      -0.339425        -9.2362
  21   1.0000      -0.328234        -8.9317
  22   1.0000      -0.317376        -8.6362
  23   1.0000      -0.315430        -8.5833
  24   1.0000      -0.308393        -8.3918
  25   0.0000       0.057110         1.5540
  26   0.0000       0.071275         1.9395
  27   0.0000       0.084617         2.3026
  28   0.0000       0.087217         2.3733
  29   0.0000       0.110496         3.0068

                 SPIN DOWN ORBITALS
  NO   OCC          E(Eh)            E(eV)
   0   1.0000     -10.172179      -276.7991
   1   1.0000     -10.172105      -276.7971
   2   1.0000     -10.170224      -276.7459
   3   1.0000     -10.169683      -276.7311
   4   1.0000     -10.166136      -276.6346
   5   1.0000     -10.165241      -276.6103
   6   1.0000      -0.793366       -21.5886
   7   1.0000      -0.753786       -20.5116
   8   1.0000      -0.693486       -18.8707
   9   1.0000      -0.632480       -17.2106
  10   1.0000      -0.575883       -15.6706
  11   1.0000      -0.554529       -15.0895
  12   1.0000      -0.468622       -12.7518
  13   1.0000      -0.446744       -12.1565
  14   1.0000      -0.432590       -11.7714
  15   1.0000      -0.410985       -11.1835
  16   1.0000      -0.403923       -10.9913
  17   1.0000      -0.383514       -10.4360
  18   1.0000      -0.365449        -9.9444
  19   1.0000      -0.354736        -9.6529
  20   1.0000      -0.339425        -9.2362
  21   1.0000      -0.328234        -8.9317
  22   1.0000      -0.317376        -8.6362
  23   1.0000      -0.315430        -8.5833
  24   1.0000      -0.308393        -8.3918
  25   0.0000       0.057110         1.5540
  26   0.0000       0.071275         1.9395
  27   0.0000       0.084617         2.3026
  28   0.0000       0.087217         2.3733
  29   0.0000       0.110496         3.0068

LOEWDIN ATOMIC CHARGES AND SPIN POPULATIONS
-------------------------------------------
   0 C :   -0.321167    0.000000
   1 C :   -0.217625    0.000000
   2 C :   -0.211007    0.000000
   3 C :   -0.214348    0.000000
   4 C :   -0.216825    0.000000
   5 C :   -0.317925    0.000000
   6 H :    0.108943    0.000000
   7 H :    0.108244    0.000000
   8 H :    0.111214    0.000000
   9 H :    0.108111    0.000000
  10 H :    0.105070    0.000000
  11 H :    0.103998    0.000000
  12 H :    0.106020    0.000000
  13 H :    0.104111    0.000000
  14 H :    0.105504    0.000000
  15 H :    0.105224    0.000000
  16 H :    0.105473    0.000000
  17 H :    0.110258    0.000000
  18 H :    0.108278    0.000000
  19 H :    0.108449    0.000000

  Mayer bond orders larger than 0.100000
B(  0-C ,  1-C ) :   1.1301 B(  0-C ,  6-H ) :   0.9572 B(  0-C ,  7-H ) :   0.9611
B(  0-C ,  8-H ) :   0.9576 B(  1-C ,  2-C ) :   1.1103 B(  1-C ,  9-H ) :   0.9355
B(  1-C , 10-H ) :   0.9334 B(  2-C ,  3-C ) :   1.1146 B(  2-C , 11-H ) :   0.9296
B(  2-C , 12-H ) :   0.9302 B(  3-C ,  4-C ) :   1.1129 B(  3-C , 13-H ) :   0.9314
B(  3-C , 14-H ) :   0.9281 B(  4-C ,  5-C ) :   1.1323 B(  4-C , 15-H ) :   0.9351
B(  4-C , 16-H ) :   0.9346 B(  5-C , 17-H ) :   0.9602 B(  5-C , 18-H ) :   0.9601
B(  5-C , 19-H ) :   0.9603

Dispersion correction           -0.024506179
FINAL SINGLE POINT ENERGY      -236.723275703463

DIPOLE MOMENT
-------------
                                X             Y             Z
Electronic contribution:      0.27918       0.58163      -1.00113
Nuclear contribution   :     -0.26989      -0.57169       0.98694
                        -----------------------------------------
Total Dipole Moment    :      0.00929       0.00994      -0.01419
                        -----------------------------------------
Magnitude (a.u.)       :      0.01966
Magnitude (Debye)      :      0.04997

Rotational constants in cm-1:     0.287370     0.044541     0.041372
Rotational constants in MHz :  8615.122217  1335.319262  1240.314574

                             ****ORCA TERMINATED NORMALLY****
TOTAL RUN TIME: 0 days 1 hours 45 minutes 12 seconds 828 msec
