                         Program Version 4.2.1 -  RELEASE  -
|  1> ! UKS B3LYP def2-SV(P) def2/J D3BJ Opt
|  2> %scf Convergence VeryTight
|  3> SmearTemp 2000
|  4> maxiter 500
|  5> end
|  6> *xyz 0 1
|  7> C -2.540029 0.117701 0.60488
|  8> C -1.733502 0.210777 -0.641145
|  9> C -0.54708 -0.677806 -0.71816
| 10> C 0.504362 -0.428732 0.321548
| 11> C 1.38086 0.767354 0.006752
| 12> C 2.851043 0.413004 0.202311
| 13> H -1.994268 -0.188211 1.505099
| 14> H -3.422452 -0.566955 0.528956
| 15> H -2.981078 1.125505 0.793476
| 16> H -1.390648 1.252031 -0.865209
| 17> H -2.405122 -0.063372 -1.493413
| 18> H -0.063284 -0.501521 -1.711617
| 19> H -0.877434 -1.725373 -0.611731
| 20> H 0.107924 -0.349445 1.347258
| 21> H 1.182291 -1.320565 0.304745
| 22> H 1.108567 1.597272 0.707087
| 23> H 1.179617 1.145825 -1.020189
| 24> H 3.100747 0.683368 1.24213
| 25> H 3.043088 -0.66867 -0.013797
| 26> H 3.496399 1.010104 -0.488982
| 27> *
| 28>
| 29>                          ****END OF INPUT****
 Total Charge           Charge          ....    0
 Multiplicity           Mult            ....    1
 Number of Electrons    NEL             ....   50
Dispersion correction           -0.025487435
FINAL SINGLE POINT ENERGY      -236.697562531237
Dispersion correction            ... done
Dispersion correction           -0.024838084
FINAL SINGLE POINT ENERGY      -236.709220354145
Dispersion correction            ... done
Dispersion correction           -0.024831324
FINAL SINGLE POINT ENERGY      -236.712160908884
Dispersion correction            ... done
FINAL SINGLE POINT ENERGY      -236.713881477226
FINAL SINGLE POINT ENERGY      -236.715254254810
FINAL SINGLE POINT ENERGY      -236.716575021580
FINAL SINGLE POINT ENERGY      -236.717882238476
FINAL SINGLE POINT ENERGY      -236.719106093971
FINAL SINGLE POINT ENERGY      -236.720188663066
FINAL SINGLE POINT ENERGY      -236.721111864491
FINAL SINGLE POINT ENERGY      -236.721864789998
FINAL SINGLE POINT ENERGY      -236.722435212471
FINAL SINGLE POINT ENERGY      -236.722805631354
FINAL SINGLE POINT ENERGY      -236.722955493565
FINAL SINGLE POINT ENERGY      -236.722970094017
Dispersion correction            ... done
Dispersion correction           -0.025469290
FINAL SINGLE POINT ENERGY      -236.722987854389
Dispersion correction            ... done
Dispersion correction           -0.025469259
FINAL SINGLE POINT ENERGY      -236.722992354099
Dispersion correction            ... done
                    ***********************HURRAY********************

CARTESIAN COORDINATES (ANGSTROEM)
---------------------------------
  C     -2.264446    0.393824    0.779333
  C     -1.753383    0.273922   -0.658892
  C     -0.708331   -0.833091   -0.867239
  C      0.564224   -0.716888   -0.015252
  C      1.356767    0.579060   -0.222942
  C      2.673298    0.607652    0.556465
  H     -1.464372    0.700047    1.477355
  H     -2.667399   -0.570976    1.141211
  H     -3.072420    1.144263    0.854362
  H     -1.337707    1.246366   -0.983400
  H     -2.608515    0.075056   -1.331788
  H     -0.421484   -0.852670   -1.936650
  H     -1.182652   -1.812921   -0.660687
  H      0.310532   -0.818564    1.057766
  H      1.220709   -1.577309   -0.248887
  H      0.739976    1.447464    0.075787
  H      1.561310    0.709914   -1.303903
  H      2.495183    0.502599    1.643348
  H      3.338732   -0.220614    0.247876
  H      3.219978    1.555155    0.396136

 Multiplicity           Mult            ....    1
 Number of Electrons    NEL             ....   50
 Basis Dimension        Dim             ....  112

ORBITAL ENERGIES
----------------
                 SPIN UP ORBITALS
  NO   OCC          E(Eh)            E(eV)
   0   1.0000     -10.171950      -276.7928
   1   1.0000     -10.171220      -276.7730
   2   1.0000     -10.170124      -276.7431
   3   1.0000     -10.169424      -276.7241
   4   1.0000     -10.166565      -276.6463
   5   1.0000     -10.165849      -276.6268
   6   1.0000      -0.794088       -21.6082
   7   1.0000      -0.751149       -20.4398
   8   1.0000      -0.694282       -18.8924
   9   1.0000      -0.632510       -17.2115
  10   1.0000      -0.587161       -15.9775
  11   1.0000      -0.540861       -14.7176
  12   1.0000      -0.467897       -12.7321
  13   1.0000      -0.452619       -12.3164
  14   1.0000      -0.427332       -11.6283
  15   1.0000      -0.418816       -11.3966
  16   1.0000      -0.397485       -10.8161
  17   1.0000      -0.380737       -10.3604
  18   1.0000      -0.373791       -10.1714
  19   1.0000      -0.350167        -9.5285
  20   1.0000      -0.342006        -9.3064
  21   1.0000      -0.332930        -9.0595
  22   1.0000      -0.314180        -8.5493
  23   1.0000      -0.312598        -8.5062
  24   1.0000      -0.307149        -8.3579
  25   0.0000       0.052263         1.4221
  26   0.0000       0.075821         2.0632
  27   0.0000       0.084705         2.3049
  28   0.0000       0.086388         2.3507
  29   0.0000       0.115905         3.1539

                 SPIN DOWN ORBITALS
  NO   OCC          E(Eh)            E(eV)
   0   1.0000     -10.171950      -276.7928
   1   1.0000     -10.171220      -276.7730
   2   1.0000     -10.170124      -276.7431
   3   1.0000     -10.169424      -276.7241
   4   1.0000     -10.166565      -276.6463
   5   1.0000     -10.165849      -276.6268
   6   1.0000      -0.794088       -21.6082
   7   1.0000      -0.751149       -20.4398
   8   1.0000      -0.694282       -18.8924
   9   1.0000      -0.632510       -17.2115
  10   1.0000      -0.587161       -15.9775
  11   1.0000      -0.540861       -14.7176
  12   1.0000      -0.467897       -12.7321
  13   1.0000      -0.452619       -12.3164
  14   1.0000      -0.427332       -11.6283
  15   1.0000      -0.418816       -11.3966
  16   1.0000      -0.397485       -10.8161
  17   1.0000      -0.380737       -10.3604
  18   1.0000      -0.373791       -10.1714
  19   1.0000      -0.350167        -9.5285
  20   1.0000      -0.342006        -9.3064
  21   1.0000      -0.332930        -9.0595
  22   1.0000      -0.314180        -8.5493
  23   1.0000      -0.312598        -8.5062
  24   1.0000      -0.307149        -8.3579
  25   0.0000       0.052263         1.4221
  26   0.0000       0.075821         2.0632
  27   0.0000       0.084705         2.3049
  28   0.0000       0.086388         2.3507
  29   0.0000       0.115905         3.1539

LOEWDIN ATOMIC CHARGES AND SPIN POPULATIONS
-------------------------------------------
   0 C :   -0.323568    0.000000
   1 C :   -0.219480    0.000000
   2 C :   -0.209840    0.000000
   3 C :   -0.214870    0.000000
   4 C :   -0.220512    0.000000
   5 C :   -0.319541    0.000000
   6 H :    0.109174    0.000000
   7 H :    0.108740    0.000000
   8 H :    0.112169    0.000000
   9 H :    0.105490    0.000000
  10 H :    0.108230    0.000000
  11 H :    0.105983    0.000000
  12 H :    0.105084    0.000000
  13 H :    0.105155    0.000000
  14 H :    0.106836    0.000000
  15 H :    0.106400    0.000000
  16 H :    0.105791    0.000000
  17 H :    0.109453    0.000000
  18 H :    0.108693    0.000000
  19 H :    0.110613    0.000000

  Mayer bond orders larger than 0.100000
B(  0-C ,  1-C ) :   1.1309 B(  0-C ,  6-H ) :   0.9542 B(  0-C ,  7-H ) :   0.9606
B(  0-C ,  8-H ) :   0.9588 B(  1-C ,  2-C ) :   1.1105 B(  1-C ,  9-H ) :   0.9322
B(  1-C , 10-H ) :   0.9349 B(  2-C ,  3-C ) :   1.1112 B(  2-C , 11-H ) :   0.9292
B(  2-C , 12-H ) :   0.9325 B(  3-C ,  4-C ) :   1.1140 B(  3-C , 13-H ) :   0.9270
B(  3-C , 14-H ) :   0.9311 B(  4-C ,  5-C ) :   1.1336 B(  4-C , 15-H ) :   0.9285
B(  4-C , 16-H ) :   0.9357 B(  5-C , 17-H ) :   0.9593 B(  5-C , 18-H ) :   0.9597
B(  5-C , 19-H ) :   0.9599

Dispersion correction           -0.025467482
FINAL SINGLE POINT ENERGY      -236.722993914636

DIPOLE MOMENT
-------------
                                X             Y             Z
Electronic contribution:     -0.36113      -0.62413      -1.14412
Nuclear contribution   :      0.34486       0.64126       1.12067
                        -----------------------------------------
Total Dipole Moment    :     -0.01627       0.01713      -0.02346
                        -----------------------------------------
Magnitude (a.u.)       :      0.03329
Magnitude (Debye)      :      0.08462

Rotational constants in cm-1:     0.206399     0.054953     0.050126
Rotational constants in MHz :  6187.682631  1647.447134  1502.730702

                             ****ORCA TERMINATED NORMALLY****
TOTAL RUN TIME: 0 days 1 hours 37 minutes 7 seconds 733 msec
