                         Program Version 4.2.1 -  RELEASE  -
|  1> ! UKS B3LYP def2-SV(P) def2/J D3BJ Opt
|  2> %scf Convergence VeryTight
|  3> SmearTemp 2000
|  4> maxiter 500
|  5> end
|  6> *xyz 0 2
|  7> C -0.375749 -0.000928 -0.004026
|  8> O 0.895479 0.52275 -0.115035
|  9> H -0.52825 -0.429413 1.002801
| 10> H -0.517725 -0.79198 -0.750919
| 11> H -1.080048 0.839622 -0.171831
| 12> *
| 13>
| 14>                          ****END OF INPUT****
 Total Charge           Charge          ....    0
 Multiplicity           Mult            ....    2
 Number of Electrons    NEL             ....   17
Dispersion correction           -0.002426996
FINAL SINGLE POINT ENERGY      -114.893605547703
Dispersion correction            ... done
Dispersion correction           -0.002425633
FINAL SINGLE POINT ENERGY      -114.894963612676
Dispersion correction            ... done
Dispersion correction           -0.002425493
FINAL SINGLE POINT ENERGY      -114.895620377862
Dispersion correction            ... done
FINAL SINGLE POINT ENERGY      -114.895661187255
Dispersion correction            ... done
Dispersion correction           -0.002426038
FINAL SINGLE POINT ENERGY      -114.895668794633
Dispersion correction            ... done
Dispersion correction           -0.002426027
FINAL SINGLE POINT ENERGY      -114.895669439009
Dispersion correction            ... done
                    ***********************HURRAY********************

CARTESIAN COORDINATES (ANGSTROEM)
---------------------------------
  C     -0.330557   -0.019512    0.001672
  O      0.893674    0.549441   -0.115558
  H     -0.552867   -0.414292    1.020616
  H     -0.552378   -0.787469   -0.775837
  H     -1.064164    0.811883   -0.169903

 Multiplicity           Mult            ....    2
 Number of Electrons    NEL             ....   17
 Basis Dimension        Dim             ....   34

ORBITAL ENERGIES
----------------
                 SPIN UP ORBITALS
  NO   OCC          E(Eh)            E(eV)
   0   1.0000     -19.168367      -521.5978
   1   1.0000     -10.235636      -278.5258
   2   1.0000      -1.012252       -27.5448
   3   1.0000      -0.660411       -17.9707
   4   1.0000      -0.482515       -13.1299
   5   1.0000      -0.459635       -12.5073
   6   1.0000      -0.432593       -11.7715
   7   1.0000      -0.325609        -8.8603
   8   1.0000      -0.280869        -7.6428
   9   0.0000       0.064669         1.7597
  10   0.0000       0.116262         3.1637
  11   0.0000       0.130193         3.5427
  12   0.0000       0.163648         4.4531
  13   0.0000       0.430245        11.7076

                 SPIN DOWN ORBITALS
  NO   OCC          E(Eh)            E(eV)
   0   1.0000     -19.144869      -520.9584
   1   1.0000     -10.236456      -278.5481
   2   1.0000      -0.961399       -26.1610
   3   1.0000      -0.642371       -17.4798
   4   1.0000      -0.453914       -12.3516
   5   1.0000      -0.438454       -11.9309
   6   1.0000      -0.410455       -11.1690
   7   1.0000      -0.259730        -7.0676
   8   0.0000      -0.129707        -3.5295
   9   0.0000       0.067199         1.8286
  10   0.0000       0.123884         3.3711
  11   0.0000       0.131162         3.5691
  12   0.0000       0.172654         4.6982

LOEWDIN ATOMIC CHARGES AND SPIN POPULATIONS
-------------------------------------------
   0 C :   -0.224098   -0.014990
   1 O :   -0.120334    0.883620
   2 H :    0.099960    0.018210
   3 H :    0.099976    0.017587
   4 H :    0.144496    0.095573

  Mayer bond orders larger than 0.100000
B(  0-C ,  1-O ) :   1.1882 B(  0-C ,  2-H ) :   0.9311 B(  0-C ,  3-H ) :   0.9314
B(  0-C ,  4-H ) :   0.8960

Dispersion correction           -0.002426000
FINAL SINGLE POINT ENERGY      -114.895669543543

DIPOLE MOMENT
-------------
                                X             Y             Z
Electronic contribution:      2.02329       0.87355      -0.18086
Nuclear contribution   :     -2.76425      -1.10187       0.22838
                        -----------------------------------------
Total Dipole Moment    :     -0.74097      -0.22832       0.04752
                        -----------------------------------------
Magnitude (a.u.)       :      0.77680
Magnitude (Debye)      :      1.97447

Rotational constants in cm-1:     5.160586     0.938350     0.931771
Rotational constants in MHz : 154710.473504 28131.027331 27933.784942

                             ****ORCA TERMINATED NORMALLY****
TOTAL RUN TIME: 0 days 0 hours 55 minutes 27 seconds 240 msec
