                         Program Version 4.2.1 -  RELEASE  -
|  1> ! UKS B3LYP def2-SV(P) def2/J D3BJ Opt
|  2> %scf Convergence VeryTight
|  3> SmearTemp 2000
|  4> maxiter 500
|  5> end
|  6> *xyz 0 2
|  7> C -0.377102 -0.031431 -0.011337
|  8> O 0.958016 -0.321821 -0.335155
|  9> H -0.522767 0.053064 1.082002
| 10> H -0.621923 0.926529 -0.510577
| 11> H -0.94556 -0.886493 -0.459777
| 12> *
| 13>
| 14>                          ****END OF INPUT****
 Total Charge           Charge          ....    0
 Multiplicity           Mult            ....    2
 Number of Electrons    NEL             ....   17
Dispersion correction           -0.002425453
FINAL SINGLE POINT ENERGY      -114.892417791157
Dispersion correction            ... done
Dispersion correction           -0.002425494
FINAL SINGLE POINT ENERGY      -114.894216059708
Dispersion correction            ... done
Dispersion correction           -0.002426075
FINAL SINGLE POINT ENERGY      -114.895512293695
Dispersion correction            ... done
FINAL SINGLE POINT ENERGY      -114.895550026618
FINAL SINGLE POINT ENERGY      -114.895608453391
FINAL SINGLE POINT ENERGY      -114.895633696886
FINAL SINGLE POINT ENERGY      -114.895658186648
Dispersion correction            ... done
Dispersion correction           -0.002426024
FINAL SINGLE POINT ENERGY      -114.895660731204
Dispersion correction            ... done
Dispersion correction           -0.002425999
FINAL SINGLE POINT ENERGY      -114.895662527012
Dispersion correction            ... done
                    ***********************HURRAY********************

CARTESIAN COORDINATES (ANGSTROEM)
---------------------------------
  C     -0.316428   -0.012189   -0.021783
  O      0.962533   -0.345400   -0.321241
  H     -0.536005    0.023718    1.070779
  H     -0.672650    0.916315   -0.526146
  H     -0.946786   -0.842597   -0.436453

 Multiplicity           Mult            ....    2
 Number of Electrons    NEL             ....   17
 Basis Dimension        Dim             ....   34

ORBITAL ENERGIES
----------------
                 SPIN UP ORBITALS
  NO   OCC          E(Eh)            E(eV)
   0   1.0000     -19.168414      -521.5991
   1   1.0000     -10.235564      -278.5239
   2   1.0000      -1.012230       -27.5442
   3   1.0000      -0.660414       -17.9708
   4   1.0000      -0.482374       -13.1261
   5   1.0000      -0.459648       -12.5077
   6   1.0000      -0.432577       -11.7710
   7   1.0000      -0.325610        -8.8603
   8   1.0000      -0.280875        -7.6430
   9   0.0000       0.064712         1.7609
  10   0.0000       0.116116         3.1597
  11   0.0000       0.130381         3.5479
  12   0.0000       0.164484         4.4758
  13   0.0000       0.429163        11.6781

                 SPIN DOWN ORBITALS
  NO   OCC          E(Eh)            E(eV)
   0   1.0000     -19.144893      -520.9590
   1   1.0000     -10.236387      -278.5463
   2   1.0000      -0.961338       -26.1593
   3   1.0000      -0.642379       -17.4800
   4   1.0000      -0.453937       -12.3523
   5   1.0000      -0.438310       -11.9270
   6   1.0000      -0.410427       -11.1683
   7   1.0000      -0.259758        -7.0684
   8   0.0000      -0.129665        -3.5284
   9   0.0000       0.067264         1.8304
  10   0.0000       0.123699         3.3660
  11   0.0000       0.131352         3.5743
  12   0.0000       0.173498         4.7211

LOEWDIN ATOMIC CHARGES AND SPIN POPULATIONS
-------------------------------------------
   0 C :   -0.224085   -0.015112
   1 O :   -0.120275    0.883783
   2 H :    0.099167    0.016357
   3 H :    0.100666    0.019514
   4 H :    0.144528    0.095457

  Mayer bond orders larger than 0.100000
B(  0-C ,  1-O ) :   1.1880 B(  0-C ,  2-H ) :   0.9319 B(  0-C ,  3-H ) :   0.9308
B(  0-C ,  4-H ) :   0.8962

Dispersion correction           -0.002425990
FINAL SINGLE POINT ENERGY      -114.895662599897

DIPOLE MOMENT
-------------
                                X             Y             Z
Electronic contribution:      2.10573      -0.49204      -0.46007
Nuclear contribution   :     -2.86733       0.59450       0.57921
                        -----------------------------------------
Total Dipole Moment    :     -0.76160       0.10246       0.11914
                        -----------------------------------------
Magnitude (a.u.)       :      0.77764
Magnitude (Debye)      :      1.97660

Rotational constants in cm-1:     5.161710     0.938211     0.931634
Rotational constants in MHz : 154744.166308 28126.861019 27929.670584

                             ****ORCA TERMINATED NORMALLY****
TOTAL RUN TIME: 0 days 1 hours 7 minutes 7 seconds 607 msec
