                         Program Version 4.2.1 -  RELEASE  -
|  1> ! UKS B3LYP def2-SV(P) def2/J D3BJ Opt
|  2> %scf Convergence VeryTight
|  3> SmearTemp 2000
|  4> maxiter 500
|  5> end
|  6> *xyz 0 2
|  7> C -0.369836 0.002581 0.002796
|  8> O 0.897985 -0.574835 -0.119094
|  9> H -0.674091 -0.11938 1.05078
| 10> H -0.314182 1.066474 -0.315483
| 11> H -1.083042 -0.524563 -0.642972
| 12> *
| 13>
| 14>                          ****END OF INPUT****
 Total Charge           Charge          ....    0
 Multiplicity           Mult            ....    2
 Number of Electrons    NEL             ....   17
Dispersion correction           -0.002425758
FINAL SINGLE POINT ENERGY      -114.892644984373
Dispersion correction            ... done
Dispersion correction           -0.002425270
FINAL SINGLE POINT ENERGY      -114.894504913129
Dispersion correction            ... done
Dispersion correction           -0.002425960
FINAL SINGLE POINT ENERGY      -114.895516728727
Dispersion correction            ... done
FINAL SINGLE POINT ENERGY      -114.895584316028
FINAL SINGLE POINT ENERGY      -114.895640365510
FINAL SINGLE POINT ENERGY      -114.895654087230
Dispersion correction            ... done
Dispersion correction           -0.002425970
FINAL SINGLE POINT ENERGY      -114.895666455888
Dispersion correction            ... done
Dispersion correction           -0.002425983
FINAL SINGLE POINT ENERGY      -114.895667936519
Dispersion correction            ... done
                    ***********************HURRAY********************

CARTESIAN COORDINATES (ANGSTROEM)
---------------------------------
  C     -0.333332   -0.010217   -0.042959
  O      0.893576   -0.583548   -0.093128
  H     -0.658763   -0.096355    1.027467
  H     -0.334651    1.081008   -0.273738
  H     -1.109996   -0.540610   -0.641614

 Multiplicity           Mult            ....    2
 Number of Electrons    NEL             ....   17
 Basis Dimension        Dim             ....   34

ORBITAL ENERGIES
----------------
                 SPIN UP ORBITALS
  NO   OCC          E(Eh)            E(eV)
   0   1.0000     -19.168406      -521.5988
   1   1.0000     -10.235631      -278.5257
   2   1.0000      -1.012198       -27.5433
   3   1.0000      -0.660372       -17.9696
   4   1.0000      -0.482425       -13.1275
   5   1.0000      -0.459662       -12.5081
   6   1.0000      -0.432542       -11.7701
   7   1.0000      -0.325632        -8.8609
   8   1.0000      -0.280865        -7.6427
   9   0.0000       0.064509         1.7554
  10   0.0000       0.115982         3.1560
  11   0.0000       0.130673         3.5558
  12   0.0000       0.162704         4.4274
  13   0.0000       0.430289        11.7088

                 SPIN DOWN ORBITALS
  NO   OCC          E(Eh)            E(eV)
   0   1.0000     -19.144898      -520.9592
   1   1.0000     -10.236455      -278.5481
   2   1.0000      -0.961309       -26.1585
   3   1.0000      -0.642348       -17.4792
   4   1.0000      -0.453960       -12.3529
   5   1.0000      -0.438414       -11.9299
   6   1.0000      -0.410393       -11.1674
   7   1.0000      -0.259731        -7.0676
   8   0.0000      -0.129656        -3.5281
   9   0.0000       0.067079         1.8253
  10   0.0000       0.123603         3.3634
  11   0.0000       0.131621         3.5816
  12   0.0000       0.171646         4.6707

LOEWDIN ATOMIC CHARGES AND SPIN POPULATIONS
-------------------------------------------
   0 C :   -0.224643   -0.015182
   1 O :   -0.120240    0.883952
   2 H :    0.144284    0.095554
   3 H :    0.100703    0.018587
   4 H :    0.099896    0.017090

  Mayer bond orders larger than 0.100000
B(  0-C ,  1-O ) :   1.1870 B(  0-C ,  2-H ) :   0.8962 B(  0-C ,  3-H ) :   0.9313
B(  0-C ,  4-H ) :   0.9314

Dispersion correction           -0.002425991
FINAL SINGLE POINT ENERGY      -114.895668309183

DIPOLE MOMENT
-------------
                                X             Y             Z
Electronic contribution:      2.00283      -0.92370      -0.14603
Nuclear contribution   :     -2.70522       1.22951       0.27638
                        -----------------------------------------
Total Dipole Moment    :     -0.70239       0.30581       0.13035
                        -----------------------------------------
Magnitude (a.u.)       :      0.77709
Magnitude (Debye)      :      1.97520

Rotational constants in cm-1:     5.160041     0.938217     0.931677
Rotational constants in MHz : 154694.138847 28127.023993 27930.978513

                             ****ORCA TERMINATED NORMALLY****
TOTAL RUN TIME: 0 days 1 hours 15 minutes 2 seconds 318 msec
