                         Program Version 4.2.1 -  RELEASE  -
|  1> ! UKS B3LYP def2-SV(P) def2/J D3BJ Opt
|  2> %scf Convergence VeryTight
|  3> SmearTemp 2000
|  4> maxiter 500
|  5> end
|  6> *xyz 0 2
|  7> C -0.382433 0.000434 0.010887
|  8> O 0.921432 -0.492685 -0.13979
|  9> H -0.595393 -0.035793 1.098334
| 10> H -0.512263 1.008594 -0.406201
| 11> H -1.012397 -0.714507 -0.573017
| 12> *
| 13>
| 14>                          ****END OF INPUT****
 Total Charge           Charge          ....    0
 Multiplicity           Mult            ....    2
 Number of Electrons    NEL             ....   17
Dispersion correction           -0.002425540
FINAL SINGLE POINT ENERGY      -114.892542883959
Dispersion correction            ... done
Dispersion correction           -0.002425452
FINAL SINGLE POINT ENERGY      -114.894327073847
Dispersion correction            ... done
Dispersion correction           -0.002426095
FINAL SINGLE POINT ENERGY      -114.895585404152
Dispersion correction            ... done
FINAL SINGLE POINT ENERGY      -114.895619823904
FINAL SINGLE POINT ENERGY      -114.895649852194
FINAL SINGLE POINT ENERGY      -114.895658087487
Dispersion correction            ... done
Dispersion correction           -0.002426010
FINAL SINGLE POINT ENERGY      -114.895663525185
Dispersion correction            ... done
Dispersion correction           -0.002426012
FINAL SINGLE POINT ENERGY      -114.895664311781
Dispersion correction            ... done
                    ***********************HURRAY********************

CARTESIAN COORDINATES (ANGSTROEM)
---------------------------------
  C     -0.328424   -0.007520    0.025306
  O      0.923255   -0.484468   -0.180540
  H     -0.660923   -0.042423    1.088981
  H     -0.506262    1.003477   -0.410477
  H     -1.008699   -0.703023   -0.533057

 Multiplicity           Mult            ....    2
 Number of Electrons    NEL             ....   17
 Basis Dimension        Dim             ....   34

ORBITAL ENERGIES
----------------
                 SPIN UP ORBITALS
  NO   OCC          E(Eh)            E(eV)
   0   1.0000     -19.168381      -521.5982
   1   1.0000     -10.235435      -278.5203
   2   1.0000      -1.012181       -27.5429
   3   1.0000      -0.660381       -17.9699
   4   1.0000      -0.482470       -13.1287
   5   1.0000      -0.459595       -12.5062
   6   1.0000      -0.432528       -11.7697
   7   1.0000      -0.325581        -8.8595
   8   1.0000      -0.280904        -7.6438
   9   0.0000       0.064754         1.7621
  10   0.0000       0.116279         3.1641
  11   0.0000       0.129983         3.5370
  12   0.0000       0.164073         4.4647
  13   0.0000       0.430947        11.7267

                 SPIN DOWN ORBITALS
  NO   OCC          E(Eh)            E(eV)
   0   1.0000     -19.144879      -520.9586
   1   1.0000     -10.236255      -278.5427
   2   1.0000      -0.961317       -26.1588
   3   1.0000      -0.642329       -17.4787
   4   1.0000      -0.453867       -12.3504
   5   1.0000      -0.438408       -11.9297
   6   1.0000      -0.410387       -11.1672
   7   1.0000      -0.259770        -7.0687
   8   0.0000      -0.129680        -3.5288
   9   0.0000       0.067254         1.8301
  10   0.0000       0.123928         3.3722
  11   0.0000       0.130943         3.5631
  12   0.0000       0.173101         4.7103

LOEWDIN ATOMIC CHARGES AND SPIN POPULATIONS
-------------------------------------------
   0 C :   -0.224024   -0.015012
   1 O :   -0.120423    0.883601
   2 H :    0.099372    0.016956
   3 H :    0.100423    0.018936
   4 H :    0.144652    0.095520

  Mayer bond orders larger than 0.100000
B(  0-C ,  1-O ) :   1.1888 B(  0-C ,  2-H ) :   0.9316 B(  0-C ,  3-H ) :   0.9309
B(  0-C ,  4-H ) :   0.8959

Dispersion correction           -0.002425997
FINAL SINGLE POINT ENERGY      -114.895664336346

DIPOLE MOMENT
-------------
                                X             Y             Z
Electronic contribution:      2.06313      -0.73292      -0.30148
Nuclear contribution   :     -2.81478       0.92608       0.35604
                        -----------------------------------------
Total Dipole Moment    :     -0.75165       0.19316       0.05457
                        -----------------------------------------
Magnitude (a.u.)       :      0.77799
Magnitude (Debye)      :      1.97750

Rotational constants in cm-1:     5.161517     0.938244     0.931647
Rotational constants in MHz : 154738.395680 28127.832611 27930.076456

                             ****ORCA TERMINATED NORMALLY****
TOTAL RUN TIME: 0 days 1 hours 4 minutes 24 seconds 721 msec
