                         Program Version 4.2.1 -  RELEASE  -
|  1> ! UKS B3LYP def2-SV(P) def2/J D3BJ Opt
|  2> %scf Convergence VeryTight
|  3> SmearTemp 2000
|  4> maxiter 500
|  5> end
|  6> *xyz 0 2
|  7> C -0.386213 0.012156 -0.00466
|  8> O 0.928807 0.377776 -0.29938
|  9> H -0.475298 -0.61669 0.897614
| 10> H -0.738431 -0.586934 -0.859456
| 11> H -0.929863 0.978998 0.111931
| 12> *
| 13>
| 14>                          ****END OF INPUT****
 Total Charge           Charge          ....    0
 Multiplicity           Mult            ....    2
 Number of Electrons    NEL             ....   17
 Basis Dimension        Dim             ....   34

ORBITAL ENERGIES
----------------
                 SPIN UP ORBITALS
  NO   OCC          E(Eh)            E(eV)
   0   1.0000     -19.167327      -521.5695
   1   1.0000     -10.232985      -278.4537
   2   1.0000      -0.997620       -27.1466
   3   1.0000      -0.660324       -17.9683
   4   1.0000      -0.486499       -13.2383
   5   1.0000      -0.453439       -12.3387
   6   1.0000      -0.420572       -11.4443
   7   1.0000      -0.333460        -9.0739
   8   1.0000      -0.279053        -7.5934
   9   0.0000       0.066122         1.7993
  10   0.0000       0.120617         3.2822
  11   0.0000       0.125400         3.4123
  12   0.0000       0.152694         4.1550
  13   0.0000       0.445497        12.1226

                 SPIN DOWN ORBITALS
  NO   OCC          E(Eh)            E(eV)
   0   1.0000     -19.143065      -520.9093
   1   1.0000     -10.233704      -278.4732
   2   1.0000      -0.943963       -25.6866
   3   1.0000      -0.642984       -17.4965
   4   1.0000      -0.451935       -12.2978
   5   1.0000      -0.446146       -12.1402
   6   1.0000      -0.398857       -10.8534
   7   1.0000      -0.257009        -6.9936
   8   0.0000      -0.125526        -3.4157
   9   0.0000       0.067955         1.8492
  10   0.0000       0.125236         3.4079
  11   0.0000       0.127329         3.4648
  12   0.0000       0.161955         4.4070

LOEWDIN ATOMIC CHARGES AND SPIN POPULATIONS
-------------------------------------------
   0 C :   -0.214960   -0.017271
   1 O :   -0.133886    0.920059
   2 H :    0.092704   -0.002357
   3 H :    0.126955    0.049443
   4 H :    0.129187    0.050126

  Mayer bond orders larger than 0.100000
B(  0-C ,  1-O ) :   1.1189 B(  0-C ,  2-H ) :   0.9450 B(  0-C ,  3-H ) :   0.9305
B(  0-C ,  4-H ) :   0.9294

Dispersion correction           -0.002425665
FINAL SINGLE POINT ENERGY      -114.892459012000
Dispersion correction            ... done
Dispersion correction           -0.002425412
FINAL SINGLE POINT ENERGY      -114.894186048855
Dispersion correction            ... done
Dispersion correction           -0.002425922
FINAL SINGLE POINT ENERGY      -114.895362374650
Dispersion correction            ... done
FINAL SINGLE POINT ENERGY      -114.895385253452
FINAL SINGLE POINT ENERGY      -114.895392849092
FINAL SINGLE POINT ENERGY      -114.895405040952
FINAL SINGLE POINT ENERGY      -114.895367205993
FINAL SINGLE POINT ENERGY      -114.895442802229
FINAL SINGLE POINT ENERGY      -114.895479099164
FINAL SINGLE POINT ENERGY      -114.895119988739
FINAL SINGLE POINT ENERGY      -114.895547657365
FINAL SINGLE POINT ENERGY      -114.895547657044
FINAL SINGLE POINT ENERGY      -114.895547839265
FINAL SINGLE POINT ENERGY      -114.895547856232
FINAL SINGLE POINT ENERGY      -114.895547859008
FINAL SINGLE POINT ENERGY      -114.895547859394
FINAL SINGLE POINT ENERGY      -114.895547858853
Dispersion correction           -0.002425965
FINAL SINGLE POINT ENERGY      -114.895547978807
Dispersion correction            ... done
Dispersion correction           -0.002425968
FINAL SINGLE POINT ENERGY      -114.895547981593
Dispersion correction            ... done

CARTESIAN COORDINATES (ANGSTROEM)
---------------------------------
  C     -0.333586   -0.007354   -0.011309
  O      0.937163    0.382430   -0.274329
  H     -0.465979   -0.595364    0.925611
  H     -0.794746   -0.542389   -0.876714
  H     -0.943849    0.927983    0.082790

Dispersion correction           -0.002425968
FINAL SINGLE POINT ENERGY      -114.895547581843
Dispersion correction            ... done

DIPOLE MOMENT
-------------
                                X             Y             Z
Electronic contribution:      2.09229       0.59670      -0.40769
Nuclear contribution   :     -2.85108      -0.72343       0.52015
                        -----------------------------------------
Total Dipole Moment    :     -0.75880      -0.12673       0.11246
                        -----------------------------------------
Magnitude (a.u.)       :      0.77748
Magnitude (Debye)      :      1.97621

Rotational constants in cm-1:     5.159767     0.938433     0.930901
Rotational constants in MHz : 154685.915316 28133.524271 27907.711746

                             ****ORCA TERMINATED NORMALLY****
TOTAL RUN TIME: 0 days 2 hours 26 minutes 43 seconds 655 msec
