                         Program Version 4.2.1 -  RELEASE  -
|  1> ! UKS B3LYP def2-SV(P) def2/J D3BJ Opt
|  2> %scf Convergence VeryTight
|  3> SmearTemp 2000
|  4> maxiter 500
|  5> end
|  6> *xyz 0 2
|  7> C -0.013531 0.080692 -0.405817
|  8> C 1.100578 -0.893964 -0.035812
|  9> C 0.258437 1.320463 0.415014
| 10> C -1.378238 -0.501209 -0.149636
| 11> H 1.159985 -0.953932 1.066761
| 12> H 2.04364 -0.440969 -0.376977
| 13> H 0.854804 -1.845263 -0.529144
| 14> H -0.618758 1.9544 0.57079
| 15> H 1.094952 1.851714 -0.105926
| 16> H 0.651839 1.063777 1.425385
| 17> H -1.896545 -0.692155 -1.123748
| 18> H -1.336756 -1.494497 0.355981
| 19> H -2.006439 0.232899 0.388696
| 20> *
| 21>
| 22>                          ****END OF INPUT****
 Total Charge           Charge          ....    0
 Multiplicity           Mult            ....    2
 Number of Electrons    NEL             ....   33
Dispersion correction           -0.014474544
FINAL SINGLE POINT ENERGY      -157.529104178928
Dispersion correction            ... done
Dispersion correction           -0.014190139
FINAL SINGLE POINT ENERGY      -157.541211584082
Dispersion correction            ... done
Dispersion correction           -0.014062868
FINAL SINGLE POINT ENERGY      -157.548067703879
Dispersion correction            ... done
FINAL SINGLE POINT ENERGY      -157.551727688560
FINAL SINGLE POINT ENERGY      -157.553678618660
FINAL SINGLE POINT ENERGY      -157.554880083597
FINAL SINGLE POINT ENERGY      -157.555597064089
FINAL SINGLE POINT ENERGY      -157.555921962336
FINAL SINGLE POINT ENERGY      -157.556028668784
FINAL SINGLE POINT ENERGY      -157.556157800712
FINAL SINGLE POINT ENERGY      -157.556366016213
FINAL SINGLE POINT ENERGY      -157.556643414970
FINAL SINGLE POINT ENERGY      -157.556869557229
FINAL SINGLE POINT ENERGY      -157.556956713034
FINAL SINGLE POINT ENERGY      -157.556982275446
Dispersion correction            ... done
Dispersion correction           -0.013871960
FINAL SINGLE POINT ENERGY      -157.556989112979
Dispersion correction            ... done
Dispersion correction           -0.013872063
FINAL SINGLE POINT ENERGY      -157.556989835399
Dispersion correction            ... done
                    ***********************HURRAY********************

CARTESIAN COORDINATES (ANGSTROEM)
---------------------------------
  C     -0.009180    0.037195   -0.067481
  C      1.132838   -0.914617   -0.235299
  C      0.250226    1.372392    0.556364
  C     -1.404025   -0.505187   -0.052454
  H      1.377597   -1.443435    0.717353
  H      2.058387   -0.396959   -0.549914
  H      0.906888   -1.702097   -0.978882
  H     -0.559721    2.094144    0.337511
  H      1.205598    1.809529    0.209791
  H      0.320074    1.304456    1.669048
  H     -1.539873   -1.315143   -0.793766
  H     -1.670367   -0.939689    0.941338
  H     -2.154475    0.281367   -0.258040

 Multiplicity           Mult            ....    2
 Number of Electrons    NEL             ....   33
 Basis Dimension        Dim             ....   74

ORBITAL ENERGIES
----------------
                 SPIN UP ORBITALS
  NO   OCC          E(Eh)            E(eV)
   0   1.0000     -10.183314      -277.1021
   1   1.0000     -10.169535      -276.7271
   2   1.0000     -10.169309      -276.7210
   3   1.0000     -10.169110      -276.7156
   4   1.0000      -0.789278       -21.4773
   5   1.0000      -0.677262       -18.4292
   6   1.0000      -0.677127       -18.4256
   7   1.0000      -0.526176       -14.3180
   8   1.0000      -0.439794       -11.9674
   9   1.0000      -0.435298       -11.8451
  10   1.0000      -0.435243       -11.8436
  11   1.0000      -0.381384       -10.3780
  12   1.0000      -0.381248       -10.3743
  13   1.0000      -0.362941        -9.8761
  14   1.0000      -0.342278        -9.3139
  15   1.0000      -0.342114        -9.3094
  16   1.0000      -0.170679        -4.6444
  17   0.0000       0.054468         1.4821
  18   0.0000       0.105118         2.8604
  19   0.0000       0.105538         2.8718
  20   0.0000       0.121025         3.2932
  21   0.0000       0.121311         3.3010

                 SPIN DOWN ORBITALS
  NO   OCC          E(Eh)            E(eV)
   0   1.0000     -10.170529      -276.7542
   1   1.0000     -10.170304      -276.7480
   2   1.0000     -10.170107      -276.7427
   3   1.0000     -10.169025      -276.7132
   4   1.0000      -0.772306       -21.0155
   5   1.0000      -0.674890       -18.3647
   6   1.0000      -0.674765       -18.3613
   7   1.0000      -0.508155       -13.8276
   8   1.0000      -0.431287       -11.7359
   9   1.0000      -0.431218       -11.7340
  10   1.0000      -0.419929       -11.4268
  11   1.0000      -0.375399       -10.2151
  12   1.0000      -0.375263       -10.2114
  13   1.0000      -0.361833        -9.8460
  14   1.0000      -0.337452        -9.1825
  15   1.0000      -0.337297        -9.1783
  16   0.0000      -0.030379        -0.8267
  17   0.0000       0.055663         1.5147
  18   0.0000       0.106147         2.8884
  19   0.0000       0.106560         2.8996
  20   0.0000       0.122512         3.3337

LOEWDIN ATOMIC CHARGES AND SPIN POPULATIONS
-------------------------------------------
   0 C :   -0.079987    0.820476
   1 C :   -0.312793   -0.023105
   2 C :   -0.314489   -0.023113
   3 C :   -0.313613   -0.023173
   4 H :    0.112359    0.058987
   5 H :    0.113588    0.012094
   6 H :    0.113745    0.012235
   7 H :    0.114136    0.012114
   8 H :    0.113576    0.012151
   9 H :    0.113317    0.058224
  10 H :    0.113969    0.011760
  11 H :    0.112294    0.058832
  12 H :    0.113897    0.012519

  Mayer bond orders larger than 0.100000
B(  0-C ,  1-C ) :   1.1233 B(  0-C ,  2-C ) :   1.1217 B(  0-C ,  3-C ) :   1.1231
B(  1-C ,  4-H ) :   0.9293 B(  1-C ,  5-H ) :   0.9507 B(  1-C ,  6-H ) :   0.9508
B(  2-C ,  7-H ) :   0.9506 B(  2-C ,  8-H ) :   0.9507 B(  2-C ,  9-H ) :   0.9291
B(  3-C , 10-H ) :   0.9507 B(  3-C , 11-H ) :   0.9293 B(  3-C , 12-H ) :   0.9498

Dispersion correction           -0.013871943
FINAL SINGLE POINT ENERGY      -157.556990499441

DIPOLE MOMENT
-------------
                                X             Y             Z
Electronic contribution:     -0.00655       0.19426      -0.58062
Nuclear contribution   :      0.00941      -0.22478       0.66439
                        -----------------------------------------
Total Dipole Moment    :      0.00286      -0.03052       0.08378
                        -----------------------------------------
Magnitude (a.u.)       :      0.08921
Magnitude (Debye)      :      0.22675

Rotational constants in cm-1:     0.264944     0.264720     0.143780
Rotational constants in MHz :  7942.821176  7936.103636  4310.404197

                             ****ORCA TERMINATED NORMALLY****
TOTAL RUN TIME: 0 days 1 hours 35 minutes 1 seconds 438 msec
