                         Program Version 4.2.1 -  RELEASE  -
|  1> ! UKS B3LYP def2-SV(P) def2/J D3BJ Opt
|  2> %scf Convergence VeryTight
|  3> SmearTemp 2000
|  4> maxiter 500
|  5> end
|  6> *xyz 0 2
|  7> C 0.024603 0.214771 -0.372798
|  8> C -1.024911 0.970544 0.382899
|  9> C 1.381332 0.232782 0.271012
| 10> C -0.37258 -1.246405 -0.453696
| 11> H -0.932805 2.062795 0.320312
| 12> H -0.989087 0.659953 1.434507
| 13> H -2.012992 0.658537 -0.029407
| 14> H 1.743671 1.243255 0.527407
| 15> H 2.089131 -0.181837 -0.491799
| 16> H 1.45545 -0.419731 1.171073
| 17> H -0.035461 -1.721106 -1.394692
| 18> H -1.47903 -1.373403 -0.426595
| 19> H 0.012885 -1.757647 0.455316
| 20> *
| 21>
| 22>                          ****END OF INPUT****
 Total Charge           Charge          ....    0
 Multiplicity           Mult            ....    2
 Number of Electrons    NEL             ....   33
Dispersion correction           -0.014507851
FINAL SINGLE POINT ENERGY      -157.533136155110
Dispersion correction            ... done
Dispersion correction           -0.014221957
FINAL SINGLE POINT ENERGY      -157.544155085986
Dispersion correction            ... done
Dispersion correction           -0.014101613
FINAL SINGLE POINT ENERGY      -157.550268203787
Dispersion correction            ... done
FINAL SINGLE POINT ENERGY      -157.553589859956
FINAL SINGLE POINT ENERGY      -157.555297419170
FINAL SINGLE POINT ENERGY      -157.556265338769
FINAL SINGLE POINT ENERGY      -157.556726602981
FINAL SINGLE POINT ENERGY      -157.556841507977
FINAL SINGLE POINT ENERGY      -157.556891362429
FINAL SINGLE POINT ENERGY      -157.556929800483
FINAL SINGLE POINT ENERGY      -157.556960737111
FINAL SINGLE POINT ENERGY      -157.556978151061
Dispersion correction            ... done
Dispersion correction           -0.013871195
FINAL SINGLE POINT ENERGY      -157.556985032137
Dispersion correction            ... done
Dispersion correction           -0.013872371
FINAL SINGLE POINT ENERGY      -157.556986814596
Dispersion correction            ... done
                    ***********************HURRAY********************

CARTESIAN COORDINATES (ANGSTROEM)
---------------------------------
  C     -0.015771    0.025265   -0.068658
  C     -1.038842    0.936975    0.532432
  C      1.432808    0.298592    0.187167
  C     -0.428377   -1.355548   -0.472182
  H     -0.722690    1.996643    0.488425
  H     -1.218327    0.706729    1.610345
  H     -2.018854    0.846463    0.027505
  H      1.659317    1.381025    0.156937
  H      2.085033   -0.212453   -0.545624
  H      1.751731   -0.061119    1.194972
  H      0.292045   -1.811505   -1.177754
  H     -1.428631   -1.364366   -0.944955
  H     -0.489235   -2.044190    0.404930

 Multiplicity           Mult            ....    2
 Number of Electrons    NEL             ....   33
 Basis Dimension        Dim             ....   74

ORBITAL ENERGIES
----------------
                 SPIN UP ORBITALS
  NO   OCC          E(Eh)            E(eV)
   0   1.0000     -10.183269      -277.1008
   1   1.0000     -10.169499      -276.7261
   2   1.0000     -10.169294      -276.7206
   3   1.0000     -10.168950      -276.7112
   4   1.0000      -0.789259       -21.4768
   5   1.0000      -0.677203       -18.4276
   6   1.0000      -0.677131       -18.4257
   7   1.0000      -0.526111       -14.3162
   8   1.0000      -0.439710       -11.9651
   9   1.0000      -0.435288       -11.8448
  10   1.0000      -0.435279       -11.8446
  11   1.0000      -0.381298       -10.3757
  12   1.0000      -0.381162       -10.3719
  13   1.0000      -0.362940        -9.8761
  14   1.0000      -0.342210        -9.3120
  15   1.0000      -0.342116        -9.3095
  16   1.0000      -0.170538        -4.6406
  17   0.0000       0.054755         1.4900
  18   0.0000       0.105097         2.8598
  19   0.0000       0.105583         2.8731
  20   0.0000       0.121041         3.2937
  21   0.0000       0.121275         3.3000

                 SPIN DOWN ORBITALS
  NO   OCC          E(Eh)            E(eV)
   0   1.0000     -10.170492      -276.7532
   1   1.0000     -10.170290      -276.7477
   2   1.0000     -10.169951      -276.7384
   3   1.0000     -10.168976      -276.7119
   4   1.0000      -0.772283       -21.0149
   5   1.0000      -0.674838       -18.3633
   6   1.0000      -0.674764       -18.3613
   7   1.0000      -0.508089       -13.8258
   8   1.0000      -0.431274       -11.7356
   9   1.0000      -0.431259       -11.7351
  10   1.0000      -0.419835       -11.4243
  11   1.0000      -0.375321       -10.2130
  12   1.0000      -0.375169       -10.2089
  13   1.0000      -0.361829        -9.8459
  14   1.0000      -0.337387        -9.1808
  15   1.0000      -0.337293        -9.1782
  16   0.0000      -0.030272        -0.8238
  17   0.0000       0.055963         1.5228
  18   0.0000       0.106168         2.8890
  19   0.0000       0.106609         2.9010
  20   0.0000       0.122557         3.3349

LOEWDIN ATOMIC CHARGES AND SPIN POPULATIONS
-------------------------------------------
   0 C :   -0.080156    0.820392
   1 C :   -0.313345   -0.023173
   2 C :   -0.312324   -0.023244
   3 C :   -0.314639   -0.023141
   4 H :    0.113771    0.012082
   5 H :    0.112676    0.058668
   6 H :    0.113722    0.012268
   7 H :    0.113510    0.012080
   8 H :    0.113778    0.012273
   9 H :    0.111898    0.059058
  10 H :    0.114022    0.011973
  11 H :    0.113869    0.012366
  12 H :    0.113218    0.058398

  Mayer bond orders larger than 0.100000
B(  0-C ,  1-C ) :   1.1233 B(  0-C ,  2-C ) :   1.1230 B(  0-C ,  3-C ) :   1.1248
B(  1-C ,  4-H ) :   0.9508 B(  1-C ,  5-H ) :   0.9289 B(  1-C ,  6-H ) :   0.9501
B(  2-C ,  7-H ) :   0.9508 B(  2-C ,  8-H ) :   0.9505 B(  2-C ,  9-H ) :   0.9295
B(  3-C , 10-H ) :   0.9506 B(  3-C , 11-H ) :   0.9495 B(  3-C , 12-H ) :   0.9287

Dispersion correction           -0.013871767
FINAL SINGLE POINT ENERGY      -157.556987013360

DIPOLE MOMENT
-------------
                                X             Y             Z
Electronic contribution:     -0.01631       0.24060      -0.55821
Nuclear contribution   :      0.01839      -0.27594       0.64125
                        -----------------------------------------
Total Dipole Moment    :      0.00208      -0.03534       0.08304
                        -----------------------------------------
Magnitude (a.u.)       :      0.09027
Magnitude (Debye)      :      0.22946

Rotational constants in cm-1:     0.264871     0.264784     0.143766
Rotational constants in MHz :  7940.635797  7938.016664  4309.988415

                             ****ORCA TERMINATED NORMALLY****
TOTAL RUN TIME: 0 days 1 hours 13 minutes 29 seconds 665 msec
