                         Program Version 4.2.1 -  RELEASE  -
|  1> ! UKS B3LYP def2-SV(P) def2/J D3BJ Opt
|  2> %scf Convergence VeryTight
|  3> SmearTemp 2000
|  4> maxiter 500
|  5> end
|  6> *xyz 0 2
|  7> C 0.089792 -0.07288 0.485406
|  8> C 0.198814 1.413693 0.293692
|  9> C -1.328367 -0.476455 0.097331
| 10> C 1.124415 -0.866223 -0.251913
| 11> H 1.21457 1.804462 0.446761
| 12> H -0.178502 1.649701 -0.733245
| 13> H -0.557889 1.87288 0.97997
| 14> H -1.778577 -0.958997 0.979185
| 15> H -1.231066 -1.130487 -0.782196
| 16> H -1.949483 0.382719 -0.188123
| 17> H 1.681171 -1.580027 0.408605
| 18> H 0.583725 -1.523462 -0.980085
| 19> H 1.858202 -0.262108 -0.80596
| 20> *
| 21>
| 22>                          ****END OF INPUT****
 Total Charge           Charge          ....    0
 Multiplicity           Mult            ....    2
 Number of Electrons    NEL             ....   33
Dispersion correction           -0.014415203
FINAL SINGLE POINT ENERGY      -157.528615383095
Dispersion correction            ... done
Dispersion correction           -0.014096418
FINAL SINGLE POINT ENERGY      -157.540407764074
Dispersion correction            ... done
Dispersion correction           -0.013955204
FINAL SINGLE POINT ENERGY      -157.546705798699
Dispersion correction            ... done
FINAL SINGLE POINT ENERGY      -157.550230616934
FINAL SINGLE POINT ENERGY      -157.552237249929
FINAL SINGLE POINT ENERGY      -157.553573703757
FINAL SINGLE POINT ENERGY      -157.554498740883
FINAL SINGLE POINT ENERGY      -157.555052672235
FINAL SINGLE POINT ENERGY      -157.555290546855
FINAL SINGLE POINT ENERGY      -157.555316752505
FINAL SINGLE POINT ENERGY      -157.556021575965
FINAL SINGLE POINT ENERGY      -157.556336982935
FINAL SINGLE POINT ENERGY      -157.556619328483
FINAL SINGLE POINT ENERGY      -157.556825590761
FINAL SINGLE POINT ENERGY      -157.556959228374
FINAL SINGLE POINT ENERGY      -157.556964696556
FINAL SINGLE POINT ENERGY      -157.556990172130
Dispersion correction            ... done
Dispersion correction           -0.013871768
FINAL SINGLE POINT ENERGY      -157.556991876998
Dispersion correction            ... done
Dispersion correction           -0.013872884
FINAL SINGLE POINT ENERGY      -157.556993242398
Dispersion correction            ... done
                    ***********************HURRAY********************

CARTESIAN COORDINATES (ANGSTROEM)
---------------------------------
  C     -0.024036    0.055634   -0.192718
  C      0.225199    1.464477    0.246135
  C     -1.415128   -0.489289   -0.108192
  C      1.125231   -0.901959   -0.228595
  H      1.180093    1.856483   -0.151649
  H     -0.586633    2.145657   -0.072392
  H      0.288996    1.548296    1.357977
  H     -1.678633   -0.796381    0.932358
  H     -1.544888   -1.387534   -0.740608
  H     -2.170477    0.260055   -0.411555
  H      1.375509   -1.289445    0.787910
  H      0.905430   -1.787259   -0.854492
  H      2.046142   -0.425920   -0.614751

 Multiplicity           Mult            ....    2
 Number of Electrons    NEL             ....   33
 Basis Dimension        Dim             ....   74

ORBITAL ENERGIES
----------------
                 SPIN UP ORBITALS
  NO   OCC          E(Eh)            E(eV)
   0   1.0000     -10.183257      -277.1005
   1   1.0000     -10.169304      -276.7208
   2   1.0000     -10.169042      -276.7137
   3   1.0000     -10.168824      -276.7078
   4   1.0000      -0.789196       -21.4751
   5   1.0000      -0.677157       -18.4264
   6   1.0000      -0.677072       -18.4241
   7   1.0000      -0.526067       -14.3150
   8   1.0000      -0.439675       -11.9642
   9   1.0000      -0.435183       -11.8419
  10   1.0000      -0.435150       -11.8410
  11   1.0000      -0.381307       -10.3759
  12   1.0000      -0.381240       -10.3741
  13   1.0000      -0.362784        -9.8719
  14   1.0000      -0.342111        -9.3093
  15   1.0000      -0.342020        -9.3068
  16   1.0000      -0.170650        -4.6436
  17   0.0000       0.054396         1.4802
  18   0.0000       0.104978         2.8566
  19   0.0000       0.105552         2.8722
  20   0.0000       0.121062         3.2943
  21   0.0000       0.121279         3.3002

                 SPIN DOWN ORBITALS
  NO   OCC          E(Eh)            E(eV)
   0   1.0000     -10.170298      -276.7479
   1   1.0000     -10.170039      -276.7408
   2   1.0000     -10.169822      -276.7349
   3   1.0000     -10.168972      -276.7118
   4   1.0000      -0.772225       -21.0133
   5   1.0000      -0.674788       -18.3619
   6   1.0000      -0.674709       -18.3598
   7   1.0000      -0.508047       -13.8247
   8   1.0000      -0.431171       -11.7328
   9   1.0000      -0.431124       -11.7315
  10   1.0000      -0.419815       -11.4238
  11   1.0000      -0.375335       -10.2134
  12   1.0000      -0.375248       -10.2110
  13   1.0000      -0.361675        -9.8417
  14   1.0000      -0.337286        -9.1780
  15   1.0000      -0.337195        -9.1755
  16   0.0000      -0.030412        -0.8276
  17   0.0000       0.055566         1.5120
  18   0.0000       0.105982         2.8839
  19   0.0000       0.106589         2.9004
  20   0.0000       0.122550         3.3348

LOEWDIN ATOMIC CHARGES AND SPIN POPULATIONS
-------------------------------------------
   0 C :   -0.080154    0.820362
   1 C :   -0.313820   -0.023122
   2 C :   -0.312858   -0.023178
   3 C :   -0.312302   -0.023105
   4 H :    0.113528    0.012053
   5 H :    0.114005    0.012252
   6 H :    0.112825    0.058362
   7 H :    0.112209    0.058814
   8 H :    0.113584    0.012093
   9 H :    0.113747    0.012235
  10 H :    0.112136    0.058908
  11 H :    0.113612    0.011969
  12 H :    0.113486    0.012360

  Mayer bond orders larger than 0.100000
B(  0-C ,  1-C ) :   1.1208 B(  0-C ,  2-C ) :   1.1239 B(  0-C ,  3-C ) :   1.1233
B(  1-C ,  4-H ) :   0.9510 B(  1-C ,  5-H ) :   0.9504 B(  1-C ,  6-H ) :   0.9293
B(  2-C ,  7-H ) :   0.9294 B(  2-C ,  8-H ) :   0.9503 B(  2-C ,  9-H ) :   0.9501
B(  3-C , 10-H ) :   0.9294 B(  3-C , 11-H ) :   0.9507 B(  3-C , 12-H ) :   0.9507

Dispersion correction           -0.013871786
FINAL SINGLE POINT ENERGY      -157.556993506807

DIPOLE MOMENT
-------------
                                X             Y             Z
Electronic contribution:     -0.00915       0.11204      -0.59882
Nuclear contribution   :      0.01199      -0.13099       0.68687
                        -----------------------------------------
Total Dipole Moment    :      0.00284      -0.01895       0.08804
                        -----------------------------------------
Magnitude (a.u.)       :      0.09011
Magnitude (Debye)      :      0.22903

Rotational constants in cm-1:     0.264939     0.264717     0.143772
Rotational constants in MHz :  7942.661725  7936.005837  4310.163863

                             ****ORCA TERMINATED NORMALLY****
TOTAL RUN TIME: 0 days 2 hours 18 minutes 50 seconds 21 msec
