                         Program Version 4.2.1 -  RELEASE  -
|  1> ! UKS B3LYP def2-SV(P) def2/J D3BJ Opt
|  2> %scf Convergence VeryTight
|  3> SmearTemp 2000
|  4> maxiter 500
|  5> end
|  6> *xyz 0 2
|  7> C -0.078024 0.057177 0.373548
|  8> C 1.265433 -0.608904 0.147611
|  9> C -1.175437 -0.828589 -0.146067
| 10> C -0.094988 1.436795 -0.232256
| 11> H 1.821705 -0.151474 -0.707389
| 12> H 1.875218 -0.458865 1.074147
| 13> H 1.106826 -1.685632 -0.082089
| 14> H -0.962242 -1.860898 0.229844
| 15> H -1.196159 -0.908035 -1.249728
| 16> H -2.174879 -0.573486 0.259115
| 17> H -0.392092 2.215481 0.515502
| 18> H 0.958985 1.702901 -0.50014
| 19> H -0.70523 1.500086 -1.15741
| 20> *
| 21>
| 22>                          ****END OF INPUT****
 Total Charge           Charge          ....    0
 Multiplicity           Mult            ....    2
 Number of Electrons    NEL             ....   33
Dispersion correction           -0.014315046
FINAL SINGLE POINT ENERGY      -157.531153572665
Dispersion correction            ... done
Dispersion correction           -0.014059346
FINAL SINGLE POINT ENERGY      -157.541788432515
Dispersion correction            ... done
Dispersion correction           -0.013963009
FINAL SINGLE POINT ENERGY      -157.547705381682
Dispersion correction            ... done
FINAL SINGLE POINT ENERGY      -157.551145272121
FINAL SINGLE POINT ENERGY      -157.553130514479
FINAL SINGLE POINT ENERGY      -157.554393067734
FINAL SINGLE POINT ENERGY      -157.555193429351
FINAL SINGLE POINT ENERGY      -157.555596152043
FINAL SINGLE POINT ENERGY      -157.555715212672
FINAL SINGLE POINT ENERGY      -157.555797904344
FINAL SINGLE POINT ENERGY      -157.556502426396
FINAL SINGLE POINT ENERGY      -157.556682564928
FINAL SINGLE POINT ENERGY      -157.556711678104
FINAL SINGLE POINT ENERGY      -157.556929885020
FINAL SINGLE POINT ENERGY      -157.556949355427
FINAL SINGLE POINT ENERGY      -157.556960441401
FINAL SINGLE POINT ENERGY      -157.556970112216
Dispersion correction            ... done
Dispersion correction           -0.013866684
FINAL SINGLE POINT ENERGY      -157.556979030358
Dispersion correction            ... done
Dispersion correction           -0.013869384
FINAL SINGLE POINT ENERGY      -157.556981761868
Dispersion correction            ... done
                    ***********************HURRAY********************

CARTESIAN COORDINATES (ANGSTROEM)
---------------------------------
  C      0.008455   -0.008550    0.076524
  C      1.354301   -0.658735    0.002603
  C     -1.210485   -0.848466   -0.143278
  C     -0.090121    1.471203   -0.120974
  H      1.685363   -0.811027   -1.052527
  H      2.135813   -0.045881    0.490212
  H      1.353957   -1.658413    0.476059
  H     -1.119722   -1.840487    0.337254
  H     -1.393925   -1.039913   -1.227652
  H     -2.123236   -0.359361    0.245840
  H     -1.041317    1.876622    0.272508
  H      0.742985    2.009001    0.369406
  H     -0.052953    1.750565   -1.201287

 Multiplicity           Mult            ....    2
 Number of Electrons    NEL             ....   33
 Basis Dimension        Dim             ....   74

ORBITAL ENERGIES
----------------
                 SPIN UP ORBITALS
  NO   OCC          E(Eh)            E(eV)
   0   1.0000     -10.183127      -277.0970
   1   1.0000     -10.168844      -276.7083
   2   1.0000     -10.168815      -276.7075
   3   1.0000     -10.168638      -276.7027
   4   1.0000      -0.789106       -21.4727
   5   1.0000      -0.677094       -18.4247
   6   1.0000      -0.677000       -18.4221
   7   1.0000      -0.525983       -14.3127
   8   1.0000      -0.439554       -11.9609
   9   1.0000      -0.435091       -11.8394
  10   1.0000      -0.435045       -11.8382
  11   1.0000      -0.381278       -10.3751
  12   1.0000      -0.381172       -10.3722
  13   1.0000      -0.362596        -9.8667
  14   1.0000      -0.341993        -9.3061
  15   1.0000      -0.341871        -9.3028
  16   1.0000      -0.170565        -4.6413
  17   0.0000       0.054320         1.4781
  18   0.0000       0.104667         2.8481
  19   0.0000       0.105708         2.8765
  20   0.0000       0.121111         3.2956
  21   0.0000       0.121426         3.3042

                 SPIN DOWN ORBITALS
  NO   OCC          E(Eh)            E(eV)
   0   1.0000     -10.169841      -276.7355
   1   1.0000     -10.169815      -276.7347
   2   1.0000     -10.169638      -276.7299
   3   1.0000     -10.168844      -276.7083
   4   1.0000      -0.772124       -21.0106
   5   1.0000      -0.674725       -18.3602
   6   1.0000      -0.674636       -18.3578
   7   1.0000      -0.507953       -13.8221
   8   1.0000      -0.431068       -11.7299
   9   1.0000      -0.431013       -11.7284
  10   1.0000      -0.419702       -11.4207
  11   1.0000      -0.375292       -10.2122
  12   1.0000      -0.375204       -10.2098
  13   1.0000      -0.361487        -9.8366
  14   1.0000      -0.337167        -9.1748
  15   1.0000      -0.337050        -9.1716
  16   0.0000      -0.030325        -0.8252
  17   0.0000       0.055472         1.5095
  18   0.0000       0.105631         2.8744
  19   0.0000       0.106717         2.9039
  20   0.0000       0.122603         3.3362

LOEWDIN ATOMIC CHARGES AND SPIN POPULATIONS
-------------------------------------------
   0 C :   -0.080669    0.820383
   1 C :   -0.312807   -0.023175
   2 C :   -0.312124   -0.023172
   3 C :   -0.311847   -0.023093
   4 H :    0.112451    0.058651
   5 H :    0.113710    0.012106
   6 H :    0.113424    0.012281
   7 H :    0.113478    0.012330
   8 H :    0.112251    0.058564
   9 H :    0.113257    0.012045
  10 H :    0.113355    0.012304
  11 H :    0.113584    0.012059
  12 H :    0.111936    0.058718

  Mayer bond orders larger than 0.100000
B(  0-C ,  1-C ) :   1.1253 B(  0-C ,  2-C ) :   1.1233 B(  0-C ,  3-C ) :   1.1200
B(  1-C ,  4-H ) :   0.9294 B(  1-C ,  5-H ) :   0.9501 B(  1-C ,  6-H ) :   0.9495
B(  2-C ,  7-H ) :   0.9497 B(  2-C ,  8-H ) :   0.9299 B(  2-C ,  9-H ) :   0.9509
B(  3-C , 10-H ) :   0.9509 B(  3-C , 11-H ) :   0.9509 B(  3-C , 12-H ) :   0.9301

Dispersion correction           -0.013870294
FINAL SINGLE POINT ENERGY      -157.556982252634

DIPOLE MOMENT
-------------
                                X             Y             Z
Electronic contribution:     -0.03263       0.01246       0.59997
Nuclear contribution   :      0.03719      -0.01473      -0.68946
                        -----------------------------------------
Total Dipole Moment    :      0.00456      -0.00227      -0.08949
                        -----------------------------------------
Magnitude (a.u.)       :      0.08964
Magnitude (Debye)      :      0.22784

Rotational constants in cm-1:     0.264880     0.264743     0.143753
Rotational constants in MHz :  7940.889913  7936.792568  4309.594177

                             ****ORCA TERMINATED NORMALLY****
TOTAL RUN TIME: 0 days 1 hours 42 minutes 33 seconds 643 msec
