                         Program Version 4.2.1 -  RELEASE  -
|  1> ! UKS B3LYP def2-SV(P) def2/J D3BJ Opt
|  2> %scf Convergence VeryTight
|  3> SmearTemp 2000
|  4> maxiter 500
|  5> end
|  6> *xyz 0 2
|  7> C -0.044128 0.02008 -0.380368
|  8> C -1.443047 -0.029511 0.172956
|  9> C 0.738679 -1.246519 -0.124827
| 10> C 0.718642 1.242971 0.033497
| 11> H -2.011716 -0.774524 -0.434053
| 12> H -1.507341 -0.345976 1.219528
| 13> H -1.8965 0.952185 -0.017688
| 14> H 1.598711 -1.290119 -0.840584
| 15> H 0.1194 -2.127687 -0.36519
| 16> H 1.123733 -1.250622 0.905975
| 17> H 0.002011 2.009751 0.420483
| 18> H 1.23108 1.718745 -0.839732
| 19> H 1.534468 1.034087 0.768642
| 20> *
| 21>
| 22>                          ****END OF INPUT****
 Total Charge           Charge          ....    0
 Multiplicity           Mult            ....    2
 Number of Electrons    NEL             ....   33
Dispersion correction           -0.014258989
FINAL SINGLE POINT ENERGY      -157.540518776147
Dispersion correction            ... done
Dispersion correction           -0.014045212
FINAL SINGLE POINT ENERGY      -157.548326892211
Dispersion correction            ... done
Dispersion correction           -0.013960645
FINAL SINGLE POINT ENERGY      -157.552508772458
Dispersion correction            ... done
FINAL SINGLE POINT ENERGY      -157.554526173449
FINAL SINGLE POINT ENERGY      -157.555487491009
FINAL SINGLE POINT ENERGY      -157.556051473072
FINAL SINGLE POINT ENERGY      -157.556365250042
FINAL SINGLE POINT ENERGY      -157.556482312341
FINAL SINGLE POINT ENERGY      -157.556607655160
FINAL SINGLE POINT ENERGY      -157.556774603654
FINAL SINGLE POINT ENERGY      -157.556914689669
Dispersion correction            ... done
Dispersion correction           -0.013868636
FINAL SINGLE POINT ENERGY      -157.556968480962
Dispersion correction            ... done
Dispersion correction           -0.013872718
FINAL SINGLE POINT ENERGY      -157.556983240303
Dispersion correction            ... done
                    ***********************HURRAY********************

CARTESIAN COORDINATES (ANGSTROEM)
---------------------------------
  C     -0.022843    0.015824   -0.146531
  C     -1.451740   -0.047329    0.293090
  C      0.746269   -1.260915   -0.280660
  C      0.729019    1.297379    0.028632
  H     -1.990265   -0.892217   -0.175709
  H     -1.539500   -0.190253    1.397139
  H     -1.997870    0.884997    0.055105
  H      1.655342   -1.132145   -0.897720
  H      0.133497   -2.065270   -0.730390
  H      1.089657   -1.645352    0.709597
  H      0.105966    2.177734   -0.219167
  H      1.639755    1.330140   -0.597909
  H      1.066706    1.440267    1.083163

 Multiplicity           Mult            ....    2
 Number of Electrons    NEL             ....   33
 Basis Dimension        Dim             ....   74

ORBITAL ENERGIES
----------------
                 SPIN UP ORBITALS
  NO   OCC          E(Eh)            E(eV)
   0   1.0000     -10.183241      -277.1001
   1   1.0000     -10.169149      -276.7166
   2   1.0000     -10.169064      -276.7143
   3   1.0000     -10.168966      -276.7116
   4   1.0000      -0.789234       -21.4761
   5   1.0000      -0.677193       -18.4274
   6   1.0000      -0.677071       -18.4240
   7   1.0000      -0.526027       -14.3139
   8   1.0000      -0.439697       -11.9648
   9   1.0000      -0.435273       -11.8444
  10   1.0000      -0.435128       -11.8404
  11   1.0000      -0.381334       -10.3766
  12   1.0000      -0.381199       -10.3730
  13   1.0000      -0.362830        -9.8731
  14   1.0000      -0.342120        -9.3096
  15   1.0000      -0.342039        -9.3074
  16   1.0000      -0.170500        -4.6395
  17   0.0000       0.054510         1.4833
  18   0.0000       0.105196         2.8625
  19   0.0000       0.105403         2.8682
  20   0.0000       0.121010         3.2928
  21   0.0000       0.121251         3.2994

                 SPIN DOWN ORBITALS
  NO   OCC          E(Eh)            E(eV)
   0   1.0000     -10.170146      -276.7437
   1   1.0000     -10.170061      -276.7414
   2   1.0000     -10.169966      -276.7389
   3   1.0000     -10.168955      -276.7113
   4   1.0000      -0.772256       -21.0142
   5   1.0000      -0.674817       -18.3627
   6   1.0000      -0.674712       -18.3598
   7   1.0000      -0.508009       -13.8236
   8   1.0000      -0.431235       -11.7345
   9   1.0000      -0.431131       -11.7317
  10   1.0000      -0.419825       -11.4240
  11   1.0000      -0.375330       -10.2133
  12   1.0000      -0.375234       -10.2106
  13   1.0000      -0.361719        -9.8429
  14   1.0000      -0.337278        -9.1778
  15   1.0000      -0.337229        -9.1765
  16   0.0000      -0.030315        -0.8249
  17   0.0000       0.055696         1.5156
  18   0.0000       0.106205         2.8900
  19   0.0000       0.106473         2.8973
  20   0.0000       0.122470         3.3326

LOEWDIN ATOMIC CHARGES AND SPIN POPULATIONS
-------------------------------------------
   0 C :   -0.080334    0.820228
   1 C :   -0.313221   -0.023157
   2 C :   -0.313489   -0.023157
   3 C :   -0.312315   -0.023217
   4 H :    0.113739    0.012438
   5 H :    0.112643    0.058362
   6 H :    0.113665    0.011848
   7 H :    0.113782    0.011810
   8 H :    0.113943    0.012584
   9 H :    0.112435    0.058919
  10 H :    0.113486    0.012686
  11 H :    0.113588    0.011740
  12 H :    0.112078    0.058916

  Mayer bond orders larger than 0.100000
B(  0-C ,  1-C ) :   1.1209 B(  0-C ,  2-C ) :   1.1262 B(  0-C ,  3-C ) :   1.1243
B(  1-C ,  4-H ) :   0.9506 B(  1-C ,  5-H ) :   0.9292 B(  1-C ,  6-H ) :   0.9510
B(  2-C ,  7-H ) :   0.9498 B(  2-C ,  8-H ) :   0.9501 B(  2-C ,  9-H ) :   0.9288
B(  3-C , 10-H ) :   0.9504 B(  3-C , 11-H ) :   0.9504 B(  3-C , 12-H ) :   0.9294

Dispersion correction           -0.013872006
FINAL SINGLE POINT ENERGY      -157.556985658064

DIPOLE MOMENT
-------------
                                X             Y             Z
Electronic contribution:     -0.10859       0.07049      -0.59192
Nuclear contribution   :      0.12761      -0.08149       0.67979
                        -----------------------------------------
Total Dipole Moment    :      0.01901      -0.01100       0.08788
                        -----------------------------------------
Magnitude (a.u.)       :      0.09058
Magnitude (Debye)      :      0.23023

Rotational constants in cm-1:     0.265046     0.264638     0.143770
Rotational constants in MHz :  7945.887133  7933.647924  4310.115324

                             ****ORCA TERMINATED NORMALLY****
TOTAL RUN TIME: 0 days 1 hours 9 minutes 36 seconds 190 msec
