                         Program Version 4.2.1 -  RELEASE  -
|  1> ! UKS B3LYP def2-SV(P) def2/J D3BJ Opt
|  2> %scf Convergence VeryTight
|  3> SmearTemp 2000
|  4> maxiter 500
|  5> end
|  6> *xyz 0 2
|  7> C -0.013801 0.075577 0.399739
|  8> C -0.348355 1.386235 -0.271444
|  9> C 1.360581 -0.419639 0.068919
| 10> C -1.012493 -0.978134 -0.044105
| 11> H 0.184781 2.224524 0.242874
| 12> H -1.452313 1.513981 -0.137465
| 13> H -0.107453 1.367219 -1.359916
| 14> H 1.359594 -1.460325 -0.340495
| 15> H 1.93323 -0.481087 1.029512
| 16> H 1.920686 0.247782 -0.614047
| 17> H -0.586168 -1.454504 -0.942256
| 18> H -1.091176 -1.764691 0.733695
| 19> H -1.960313 -0.467155 -0.259917
| 20> *
| 21>
| 22>                          ****END OF INPUT****
 Total Charge           Charge          ....    0
 Multiplicity           Mult            ....    2
 Number of Electrons    NEL             ....   33
Dispersion correction           -0.014478677
FINAL SINGLE POINT ENERGY      -157.528014543665
Dispersion correction            ... done
Dispersion correction           -0.014164607
FINAL SINGLE POINT ENERGY      -157.540516203154
Dispersion correction            ... done
Dispersion correction           -0.014025911
FINAL SINGLE POINT ENERGY      -157.547120526366
Dispersion correction            ... done
FINAL SINGLE POINT ENERGY      -157.550955530088
FINAL SINGLE POINT ENERGY      -157.553091003674
FINAL SINGLE POINT ENERGY      -157.554353011240
FINAL SINGLE POINT ENERGY      -157.555099343518
FINAL SINGLE POINT ENERGY      -157.555386995111
FINAL SINGLE POINT ENERGY      -157.555439947657
FINAL SINGLE POINT ENERGY      -157.555453884007
FINAL SINGLE POINT ENERGY      -157.555647598588
FINAL SINGLE POINT ENERGY      -157.555647888523
FINAL SINGLE POINT ENERGY      -157.555648117218
FINAL SINGLE POINT ENERGY      -157.555648331969
FINAL SINGLE POINT ENERGY      -157.555648569265
FINAL SINGLE POINT ENERGY      -157.555648828936
FINAL SINGLE POINT ENERGY      -157.555649100506
Dispersion correction            ... done
Dispersion correction           -0.013796360
FINAL SINGLE POINT ENERGY      -157.555649350344
Dispersion correction            ... done
Dispersion correction           -0.013796690
FINAL SINGLE POINT ENERGY      -157.555649522221
Dispersion correction            ... done
                    ***********************HURRAY********************

CARTESIAN COORDINATES (ANGSTROEM)
---------------------------------
  C     -0.005975   -0.017451   -0.021799
  C     -0.326133    1.408335   -0.342818
  C      1.429967   -0.401906    0.165682
  C     -1.071050   -1.061794   -0.131264
  H      0.309921    2.111114    0.229650
  H     -1.383105    1.654440   -0.130397
  H     -0.153104    1.642936   -1.419778
  H      1.585778   -1.491852    0.073245
  H      1.813111   -0.100978    1.166660
  H      2.092796    0.097606   -0.571632
  H     -1.255985   -1.369141   -1.188027
  H     -0.806263   -1.982526    0.420471
  H     -2.043159   -0.699001    0.255101

 Multiplicity           Mult            ....    2
 Number of Electrons    NEL             ....   33
 Basis Dimension        Dim             ....   74

ORBITAL ENERGIES
----------------
                 SPIN UP ORBITALS
  NO   OCC          E(Eh)            E(eV)
   0   1.0000     -10.180498      -277.0254
   1   1.0000     -10.169040      -276.7136
   2   1.0000     -10.168724      -276.7050
   3   1.0000     -10.168130      -276.6889
   4   1.0000      -0.787245       -21.4220
   5   1.0000      -0.677815       -18.4443
   6   1.0000      -0.676093       -18.3974
   7   1.0000      -0.525785       -14.3073
   8   1.0000      -0.438365       -11.9285
   9   1.0000      -0.434876       -11.8336
  10   1.0000      -0.432888       -11.7795
  11   1.0000      -0.383724       -10.4417
  12   1.0000      -0.379973       -10.3396
  13   1.0000      -0.362410        -9.8617
  14   1.0000      -0.342767        -9.3272
  15   1.0000      -0.341343        -9.2884
  16   1.0000      -0.164736        -4.4827
  17   0.0000       0.055305         1.5049
  18   0.0000       0.103629         2.8199
  19   0.0000       0.107625         2.9286
  20   0.0000       0.119498         3.2517
  21   0.0000       0.121013         3.2929

                 SPIN DOWN ORBITALS
  NO   OCC          E(Eh)            E(eV)
   0   1.0000     -10.170102      -276.7425
   1   1.0000     -10.169820      -276.7349
   2   1.0000     -10.169207      -276.7182
   3   1.0000     -10.166111      -276.6339
   4   1.0000      -0.769894       -20.9499
   5   1.0000      -0.675315       -18.3762
   6   1.0000      -0.673814       -18.3354
   7   1.0000      -0.507200       -13.8016
   8   1.0000      -0.430822       -11.7233
   9   1.0000      -0.430045       -11.7021
  10   1.0000      -0.417400       -11.3580
  11   1.0000      -0.377160       -10.2631
  12   1.0000      -0.373917       -10.1748
  13   1.0000      -0.361109        -9.8263
  14   1.0000      -0.337541        -9.1850
  15   1.0000      -0.336825        -9.1655
  16   0.0000      -0.024575        -0.6687
  17   0.0000       0.056680         1.5423
  18   0.0000       0.104837         2.8528
  19   0.0000       0.108600         2.9551
  20   0.0000       0.121317         3.3012

LOEWDIN ATOMIC CHARGES AND SPIN POPULATIONS
-------------------------------------------
   0 C :   -0.085861    0.825928
   1 C :   -0.311668   -0.025054
   2 C :   -0.313148   -0.024497
   3 C :   -0.311147   -0.025106
   4 H :    0.113786    0.018369
   5 H :    0.112477    0.008787
   6 H :    0.112883    0.054604
   7 H :    0.113364    0.003814
   8 H :    0.116741    0.045671
   9 H :    0.113332    0.030668
  10 H :    0.112933    0.059025
  11 H :    0.113282    0.009916
  12 H :    0.113027    0.017875

  Mayer bond orders larger than 0.100000
B(  0-C ,  1-C ) :   1.1233 B(  0-C ,  2-C ) :   1.1184 B(  0-C ,  3-C ) :   1.1465
B(  1-C ,  4-H ) :   0.9508 B(  1-C ,  5-H ) :   0.9522 B(  1-C ,  6-H ) :   0.9298
B(  2-C ,  7-H ) :   0.9542 B(  2-C ,  8-H ) :   0.9358 B(  2-C ,  9-H ) :   0.9459
B(  3-C , 10-H ) :   0.9302 B(  3-C , 11-H ) :   0.9486 B(  3-C , 12-H ) :   0.9465

Dispersion correction           -0.013796812
FINAL SINGLE POINT ENERGY      -157.555649558353

DIPOLE MOMENT
-------------
                                X             Y             Z
Electronic contribution:     -0.06236      -0.02872       0.29330
Nuclear contribution   :      0.07865       0.02086      -0.33284
                        -----------------------------------------
Total Dipole Moment    :      0.01629      -0.00786      -0.03954
                        -----------------------------------------
Magnitude (a.u.)       :      0.04348
Magnitude (Debye)      :      0.11052

Rotational constants in cm-1:     0.266801     0.259956     0.142384
Rotational constants in MHz :  7998.501576  7793.284891  4268.568376

                             ****ORCA TERMINATED NORMALLY****
TOTAL RUN TIME: 0 days 2 hours 21 minutes 56 seconds 16 msec
