                         Program Version 4.2.1 -  RELEASE  -
|  1> ! UKS B3LYP def2-SV(P) def2/J D3BJ Opt
|  2> %scf Convergence VeryTight
|  3> SmearTemp 2000
|  4> maxiter 500
|  5> end
|  6> *xyz 0 2
|  7> C -0.058653 0.008836 0.382777
|  8> C 1.433147 0.008372 0.17417
|  9> C -0.698141 -1.228168 -0.179633
| 10> C -0.72701 1.227936 -0.231001
| 11> H 1.721143 0.922911 -0.371975
| 12> H 1.737048 -0.891871 -0.395083
| 13> H 2.007738 -0.011055 1.1152
| 14> H -1.438439 -1.031604 -0.969732
| 15> H -1.230175 -1.724483 0.642428
| 16> H 0.105594 -1.861341 -0.634424
| 17> H -1.765417 1.211095 0.135288
| 18> H -0.15263 2.100541 0.173099
| 19> H -0.705799 1.158443 -1.324284
| 20> *
| 21>
| 22>                          ****END OF INPUT****
 Total Charge           Charge          ....    0
 Multiplicity           Mult            ....    2
 Number of Electrons    NEL             ....   33
 Basis Dimension        Dim             ....   74

ORBITAL ENERGIES
----------------
                 SPIN UP ORBITALS
  NO   OCC          E(Eh)            E(eV)
   0   1.0000     -10.187203      -277.2079
   1   1.0000     -10.168369      -276.6954
   2   1.0000     -10.166068      -276.6328
   3   1.0000     -10.164298      -276.5846
   4   1.0000      -0.799192       -21.7471
   5   1.0000      -0.676185       -18.3999
   6   1.0000      -0.672239       -18.2925
   7   1.0000      -0.522694       -14.2232
   8   1.0000      -0.452352       -12.3091
   9   1.0000      -0.439030       -11.9466
  10   1.0000      -0.429546       -11.6885
  11   1.0000      -0.396595       -10.7919
  12   1.0000      -0.388836       -10.5808
  13   1.0000      -0.353949        -9.6314
  14   1.0000      -0.332720        -9.0538
  15   1.0000      -0.315316        -8.5802
  16   1.0000      -0.198770        -5.4088
  17   0.0000       0.059304         1.6137
  18   0.0000       0.100391         2.7318
  19   0.0000       0.108607         2.9553
  20   0.0000       0.118217         3.2168
  21   0.0000       0.124119         3.3775

                 SPIN DOWN ORBITALS
  NO   OCC          E(Eh)            E(eV)
   0   1.0000     -10.172261      -276.8013
   1   1.0000     -10.168725      -276.7051
   2   1.0000     -10.166400      -276.6418
   3   1.0000     -10.164707      -276.5958
   4   1.0000      -0.784329       -21.3427
   5   1.0000      -0.673445       -18.3254
   6   1.0000      -0.669698       -18.2234
   7   1.0000      -0.504285       -13.7223
   8   1.0000      -0.439579       -11.9616
   9   1.0000      -0.433417       -11.7939
  10   1.0000      -0.425162       -11.5693
  11   1.0000      -0.390625       -10.6294
  12   1.0000      -0.383272       -10.4294
  13   1.0000      -0.352400        -9.5893
  14   1.0000      -0.326633        -8.8881
  15   1.0000      -0.309299        -8.4164
  16   0.0000      -0.047494        -1.2924
  17   0.0000       0.062225         1.6932
  18   0.0000       0.101565         2.7637
  19   0.0000       0.109493         2.9795
  20   0.0000       0.121199         3.2980

LOEWDIN ATOMIC CHARGES AND SPIN POPULATIONS
-------------------------------------------
   0 C :   -0.079358    0.846052
   1 C :   -0.318660   -0.006441
   2 C :   -0.321401   -0.009345
   3 C :   -0.314978   -0.008465
   4 H :    0.114234    0.015929
   5 H :    0.111210    0.017132
   6 H :    0.120103    0.029057
   7 H :    0.111561    0.018172
   8 H :    0.123954    0.027424
   9 H :    0.111653    0.012620
  10 H :    0.114793    0.010856
  11 H :    0.109254    0.003576
  12 H :    0.117637    0.043433

  Mayer bond orders larger than 0.100000
B(  0-C ,  1-C ) :   1.0951 B(  0-C ,  2-C ) :   1.0868 B(  0-C ,  3-C ) :   1.1160
B(  1-C ,  4-H ) :   0.9527 B(  1-C ,  5-H ) :   0.9458 B(  1-C ,  6-H ) :   0.9453
B(  2-C ,  7-H ) :   0.9500 B(  2-C ,  8-H ) :   0.9449 B(  2-C ,  9-H ) :   0.9481
B(  3-C , 10-H ) :   0.9539 B(  3-C , 11-H ) :   0.9534 B(  3-C , 12-H ) :   0.9305

Dispersion correction           -0.014445797
FINAL SINGLE POINT ENERGY      -157.527116947570
Dispersion correction            ... done
Dispersion correction           -0.014104253
FINAL SINGLE POINT ENERGY      -157.539889710752
Dispersion correction            ... done
Dispersion correction           -0.013953734
FINAL SINGLE POINT ENERGY      -157.546371250586
Dispersion correction            ... done
FINAL SINGLE POINT ENERGY      -157.550020697315
FINAL SINGLE POINT ENERGY      -157.552113444888
FINAL SINGLE POINT ENERGY      -157.553488689300
FINAL SINGLE POINT ENERGY      -157.554462270393
FINAL SINGLE POINT ENERGY      -157.555072323320
FINAL SINGLE POINT ENERGY      -157.555365999754
FINAL SINGLE POINT ENERGY      -157.555416003800
FINAL SINGLE POINT ENERGY      -157.555911568877
FINAL SINGLE POINT ENERGY      -157.555911751863
FINAL SINGLE POINT ENERGY      -157.555912236062
FINAL SINGLE POINT ENERGY      -157.555912685051
FINAL SINGLE POINT ENERGY      -157.555913558151
FINAL SINGLE POINT ENERGY      -157.555914491742
FINAL SINGLE POINT ENERGY      -157.555915898680
Dispersion correction           -0.013818099
FINAL SINGLE POINT ENERGY      -157.555917488999
Dispersion correction            ... done
Dispersion correction           -0.013818627
FINAL SINGLE POINT ENERGY      -157.555919637942
Dispersion correction            ... done

CARTESIAN COORDINATES (ANGSTROEM)
---------------------------------
  C      0.062260   -0.011742   -0.238157
  C      1.492945    0.005984    0.211546
  C     -0.688574   -1.302198   -0.350512
  C     -0.722226    1.268604   -0.246148
  H      2.066697    0.815177   -0.280204
  H      2.008642   -0.949795    0.007933
  H      1.559740    0.191652    1.309064
  H     -1.628617   -1.159108   -0.913903
  H     -0.966928   -1.711386    0.648977
  H     -0.095546   -2.092913   -0.849810
  H     -1.481301    1.316493    0.565643
  H     -0.084871    2.163751   -0.152693
  H     -1.293816    1.355093   -1.194905

Dispersion correction           -0.013819265
FINAL SINGLE POINT ENERGY      -157.555922105459
Dispersion correction            ... done

DIPOLE MOMENT
-------------
                                X             Y             Z
Electronic contribution:      0.16758      -0.00265      -0.39904
Nuclear contribution   :     -0.18943       0.00568       0.47168
                        -----------------------------------------
Total Dipole Moment    :     -0.02185       0.00303       0.07264
                        -----------------------------------------
Magnitude (a.u.)       :      0.07591
Magnitude (Debye)      :      0.19296

Rotational constants in cm-1:     0.266908     0.260588     0.142828
Rotational constants in MHz :  8001.705588  7812.242342  4281.874632

                             ****ORCA TERMINATED NORMALLY****
TOTAL RUN TIME: 0 days 2 hours 53 minutes 59 seconds 83 msec
