                         Program Version 4.2.1 -  RELEASE  -
|  1> ! UKS B3LYP def2-SV(P) def2/J D3BJ Opt
|  2> %scf Convergence VeryTight
|  3> SmearTemp 2000
|  4> maxiter 500
|  5> end
|  6> *xyz 0 2
|  7> C 0.072221 -0.032482 -0.346561
|  8> C 0.505744 1.301146 0.180439
|  9> C -1.411939 -0.161291 -0.122208
| 10> C 0.859189 -1.191009 0.177817
| 11> H -0.337583 1.906506 0.599227
| 12> H 0.923668 1.947962 -0.632595
| 13> H 1.273966 1.24313 0.964704
| 14> H -1.690969 -0.415783 0.909117
| 15> H -1.839215 0.850244 -0.33206
| 16> H -1.879757 -0.839576 -0.877447
| 17> H 0.274192 -1.913705 0.771976
| 18> H 1.724278 -0.894638 0.817025
| 19> H 1.313489 -1.79121 -0.651259
| 20> *
| 21>
| 22>                          ****END OF INPUT****
 Total Charge           Charge          ....    0
 Multiplicity           Mult            ....    2
 Number of Electrons    NEL             ....   33
Dispersion correction           -0.014184619
FINAL SINGLE POINT ENERGY      -157.532237607284
Dispersion correction            ... done
Dispersion correction           -0.013958485
FINAL SINGLE POINT ENERGY      -157.542179345606
Dispersion correction            ... done
Dispersion correction           -0.013885640
FINAL SINGLE POINT ENERGY      -157.547533252508
Dispersion correction            ... done
FINAL SINGLE POINT ENERGY      -157.550697153339
FINAL SINGLE POINT ENERGY      -157.552604160038
FINAL SINGLE POINT ENERGY      -157.553877205853
FINAL SINGLE POINT ENERGY      -157.554736900348
FINAL SINGLE POINT ENERGY      -157.555234634218
FINAL SINGLE POINT ENERGY      -157.555416432207
FINAL SINGLE POINT ENERGY      -157.555449701822
FINAL SINGLE POINT ENERGY      -157.556725683539
FINAL SINGLE POINT ENERGY      -157.556814818870
FINAL SINGLE POINT ENERGY      -157.556881415642
FINAL SINGLE POINT ENERGY      -157.556929165575
FINAL SINGLE POINT ENERGY      -157.556968824530
FINAL SINGLE POINT ENERGY      -157.556980122674
FINAL SINGLE POINT ENERGY      -157.556987068906
Dispersion correction            ... done
Dispersion correction           -0.013872143
FINAL SINGLE POINT ENERGY      -157.556989525541
Dispersion correction            ... done
Dispersion correction           -0.013871117
FINAL SINGLE POINT ENERGY      -157.556990364211
Dispersion correction            ... done
                    ***********************HURRAY********************

CARTESIAN COORDINATES (ANGSTROEM)
---------------------------------
  C     -0.046181    0.016071    0.300029
  C      0.585915    1.360898    0.124578
  C     -1.482196   -0.160825   -0.082078
  C      0.834992   -1.191464    0.372573
  H     -0.101989    2.179438    0.409185
  H      0.875071    1.548991   -0.937162
  H      1.510913    1.462015    0.722408
  H     -1.923879   -1.062509    0.382175
  H     -2.095934    0.713049    0.208060
  H     -1.607389   -0.281300   -1.185149
  H      0.310105   -2.058576    0.816065
  H      1.748890   -1.000198    0.965916
  H      1.178965   -1.516296   -0.638424

 Multiplicity           Mult            ....    2
 Number of Electrons    NEL             ....   33
 Basis Dimension        Dim             ....   74

ORBITAL ENERGIES
----------------
                 SPIN UP ORBITALS
  NO   OCC          E(Eh)            E(eV)
   0   1.0000     -10.183218      -277.0994
   1   1.0000     -10.169145      -276.7165
   2   1.0000     -10.168942      -276.7110
   3   1.0000     -10.168895      -276.7097
   4   1.0000      -0.789149       -21.4738
   5   1.0000      -0.677128       -18.4256
   6   1.0000      -0.677078       -18.4242
   7   1.0000      -0.526007       -14.3134
   8   1.0000      -0.439628       -11.9629
   9   1.0000      -0.435163       -11.8414
  10   1.0000      -0.435145       -11.8409
  11   1.0000      -0.381288       -10.3754
  12   1.0000      -0.381233       -10.3739
  13   1.0000      -0.362797        -9.8722
  14   1.0000      -0.342074        -9.3083
  15   1.0000      -0.342005        -9.3064
  16   1.0000      -0.170565        -4.6413
  17   0.0000       0.054406         1.4805
  18   0.0000       0.104935         2.8554
  19   0.0000       0.105589         2.8732
  20   0.0000       0.121092         3.2951
  21   0.0000       0.121234         3.2990

                 SPIN DOWN ORBITALS
  NO   OCC          E(Eh)            E(eV)
   0   1.0000     -10.170141      -276.7436
   1   1.0000     -10.169941      -276.7382
   2   1.0000     -10.169893      -276.7369
   3   1.0000     -10.168933      -276.7107
   4   1.0000      -0.772174       -21.0119
   5   1.0000      -0.674760       -18.3612
   6   1.0000      -0.674714       -18.3599
   7   1.0000      -0.507980       -13.8228
   8   1.0000      -0.431148       -11.7321
   9   1.0000      -0.431124       -11.7315
  10   1.0000      -0.419769       -11.4225
  11   1.0000      -0.375310       -10.2127
  12   1.0000      -0.375250       -10.2111
  13   1.0000      -0.361686        -9.8420
  14   1.0000      -0.337244        -9.1769
  15   1.0000      -0.337179        -9.1751
  16   0.0000      -0.030370        -0.8264
  17   0.0000       0.055575         1.5123
  18   0.0000       0.105939         2.8828
  19   0.0000       0.106635         2.9017
  20   0.0000       0.122585         3.3357

LOEWDIN ATOMIC CHARGES AND SPIN POPULATIONS
-------------------------------------------
   0 C :   -0.080188    0.820328
   1 C :   -0.312418   -0.023230
   2 C :   -0.313407   -0.023161
   3 C :   -0.312894   -0.023143
   4 H :    0.113577    0.012275
   5 H :    0.112162    0.058686
   6 H :    0.113450    0.012099
   7 H :    0.113632    0.012189
   8 H :    0.113858    0.012187
   9 H :    0.112570    0.058527
  10 H :    0.113682    0.012060
  11 H :    0.113707    0.012302
  12 H :    0.112266    0.058880

  Mayer bond orders larger than 0.100000
B(  0-C ,  1-C ) :   1.1236 B(  0-C ,  2-C ) :   1.1208 B(  0-C ,  3-C ) :   1.1246
B(  1-C ,  4-H ) :   0.9504 B(  1-C ,  5-H ) :   0.9295 B(  1-C ,  6-H ) :   0.9504
B(  2-C ,  7-H ) :   0.9509 B(  2-C ,  8-H ) :   0.9506 B(  2-C ,  9-H ) :   0.9293
B(  3-C , 10-H ) :   0.9505 B(  3-C , 11-H ) :   0.9502 B(  3-C , 12-H ) :   0.9292

Dispersion correction           -0.013870682
FINAL SINGLE POINT ENERGY      -157.556990546459

DIPOLE MOMENT
-------------
                                X             Y             Z
Electronic contribution:     -0.09196       0.04758       0.59511
Nuclear contribution   :      0.10777      -0.05596      -0.68334
                        -----------------------------------------
Total Dipole Moment    :      0.01581      -0.00839      -0.08823
                        -----------------------------------------
Magnitude (a.u.)       :      0.09002
Magnitude (Debye)      :      0.22882

Rotational constants in cm-1:     0.264881     0.264719     0.143745
Rotational constants in MHz :  7940.936235  7936.088576  4309.354083

                             ****ORCA TERMINATED NORMALLY****
TOTAL RUN TIME: 0 days 2 hours 11 minutes 3 seconds 421 msec
