                         Program Version 4.2.1 -  RELEASE  -
|  1> ! UKS B3LYP def2-SV(P) def2/J D3BJ Opt
|  2> %scf Convergence VeryTight
|  3> SmearTemp 2000
|  4> maxiter 500
|  5> end
|  6> *xyz 0 2
|  7> C 0.065938 -0.016435 -0.305895
|  8> C -1.209786 -0.820465 -0.109793
|  9> C 1.250622 -0.635312 0.370333
| 10> C -0.123539 1.43293 0.046074
| 11> H -1.421246 -1.014355 0.958372
| 12> H -2.02012 -0.216218 -0.592406
| 13> H -1.157502 -1.762487 -0.712309
| 14> H 1.417615 -1.64138 -0.061949
| 15> H 2.143556 -0.033596 0.06474
| 16> H 1.216795 -0.612873 1.467722
| 17> H -0.950459 1.821362 -0.575084
| 18> H 0.806183 1.962775 -0.282903
| 19> H -0.28748 1.591521 1.138588
| 20> *
| 21>
| 22>                          ****END OF INPUT****
 Total Charge           Charge          ....    0
 Multiplicity           Mult            ....    2
 Number of Electrons    NEL             ....   33
Dispersion correction           -0.014314898
FINAL SINGLE POINT ENERGY      -157.540682979467
Dispersion correction            ... done
Dispersion correction           -0.014111323
FINAL SINGLE POINT ENERGY      -157.549748085666
Dispersion correction            ... done
Dispersion correction           -0.014028620
FINAL SINGLE POINT ENERGY      -157.554509495263
Dispersion correction            ... done
FINAL SINGLE POINT ENERGY      -157.556189111819
FINAL SINGLE POINT ENERGY      -157.556631322245
FINAL SINGLE POINT ENERGY      -157.556888239782
FINAL SINGLE POINT ENERGY      -157.556960889365
Dispersion correction            ... done
Dispersion correction           -0.013868465
FINAL SINGLE POINT ENERGY      -157.556970180226
Dispersion correction            ... done
Dispersion correction           -0.013866085
FINAL SINGLE POINT ENERGY      -157.556972533870
Dispersion correction            ... done
                    ***********************HURRAY********************

CARTESIAN COORDINATES (ANGSTROEM)
---------------------------------
  C      0.011198    0.003349   -0.076929
  C     -1.232646   -0.827647   -0.128188
  C      1.296711   -0.648754    0.325196
  C     -0.113921    1.489146    0.050522
  H     -1.648192   -1.018227    0.890159
  H     -2.035056   -0.332933   -0.707136
  H     -1.045127   -1.821280   -0.577352
  H      1.398090   -1.661311   -0.108276
  H      2.175455   -0.051977    0.015676
  H      1.372851   -0.771139    1.432376
  H     -0.950649    1.885728   -0.554798
  H      0.812739    2.008168   -0.259604
  H     -0.310876    1.802344    1.103844

 Multiplicity           Mult            ....    2
 Number of Electrons    NEL             ....   33
 Basis Dimension        Dim             ....   74

ORBITAL ENERGIES
----------------
                 SPIN UP ORBITALS
  NO   OCC          E(Eh)            E(eV)
   0   1.0000     -10.183084      -277.0958
   1   1.0000     -10.169004      -276.7127
   2   1.0000     -10.168976      -276.7119
   3   1.0000     -10.168896      -276.7097
   4   1.0000      -0.789008       -21.4700
   5   1.0000      -0.677169       -18.4267
   6   1.0000      -0.676996       -18.4220
   7   1.0000      -0.525991       -14.3129
   8   1.0000      -0.439580       -11.9616
   9   1.0000      -0.435219       -11.8429
  10   1.0000      -0.434962       -11.8359
  11   1.0000      -0.381490       -10.3809
  12   1.0000      -0.381093       -10.3701
  13   1.0000      -0.362677        -9.8689
  14   1.0000      -0.342017        -9.3067
  15   1.0000      -0.341914        -9.3040
  16   1.0000      -0.170379        -4.6362
  17   0.0000       0.054456         1.4818
  18   0.0000       0.104585         2.8459
  19   0.0000       0.105812         2.8793
  20   0.0000       0.121056         3.2941
  21   0.0000       0.121275         3.3001

                 SPIN DOWN ORBITALS
  NO   OCC          E(Eh)            E(eV)
   0   1.0000     -10.170002      -276.7398
   1   1.0000     -10.169976      -276.7391
   2   1.0000     -10.169899      -276.7370
   3   1.0000     -10.168787      -276.7068
   4   1.0000      -0.772021       -21.0078
   5   1.0000      -0.674789       -18.3619
   6   1.0000      -0.674645       -18.3580
   7   1.0000      -0.507940       -13.8217
   8   1.0000      -0.431137       -11.7318
   9   1.0000      -0.431001       -11.7281
  10   1.0000      -0.419730       -11.4214
  11   1.0000      -0.375468       -10.2170
  12   1.0000      -0.375156       -10.2085
  13   1.0000      -0.361565        -9.8387
  14   1.0000      -0.337146        -9.1742
  15   1.0000      -0.337129        -9.1737
  16   0.0000      -0.030100        -0.8191
  17   0.0000       0.055624         1.5136
  18   0.0000       0.105590         2.8733
  19   0.0000       0.106787         2.9058
  20   0.0000       0.122474         3.3327

LOEWDIN ATOMIC CHARGES AND SPIN POPULATIONS
-------------------------------------------
   0 C :   -0.080268    0.820708
   1 C :   -0.313639   -0.023211
   2 C :   -0.312621   -0.023252
   3 C :   -0.312434   -0.023190
   4 H :    0.112597    0.058681
   5 H :    0.113768    0.010849
   6 H :    0.113967    0.013702
   7 H :    0.113349    0.012189
   8 H :    0.113369    0.012166
   9 H :    0.112547    0.058018
  10 H :    0.113631    0.011685
  11 H :    0.113600    0.012795
  12 H :    0.112132    0.058858

  Mayer bond orders larger than 0.100000
B(  0-C ,  1-C ) :   1.1271 B(  0-C ,  2-C ) :   1.1224 B(  0-C ,  3-C ) :   1.1212
B(  1-C ,  4-H ) :   0.9293 B(  1-C ,  5-H ) :   0.9501 B(  1-C ,  6-H ) :   0.9487
B(  2-C ,  7-H ) :   0.9504 B(  2-C ,  8-H ) :   0.9506 B(  2-C ,  9-H ) :   0.9299
B(  3-C , 10-H ) :   0.9504 B(  3-C , 11-H ) :   0.9504 B(  3-C , 12-H ) :   0.9300

Dispersion correction           -0.013866203
FINAL SINGLE POINT ENERGY      -157.556973971226

DIPOLE MOMENT
-------------
                                X             Y             Z
Electronic contribution:      0.09701      -0.00254      -0.58424
Nuclear contribution   :     -0.11347       0.00250       0.67161
                        -----------------------------------------
Total Dipole Moment    :     -0.01646      -0.00005       0.08736
                        -----------------------------------------
Magnitude (a.u.)       :      0.08890
Magnitude (Debye)      :      0.22597

Rotational constants in cm-1:     0.265088     0.264311     0.143672
Rotational constants in MHz :  7947.140658  7923.855444  4307.163950

                             ****ORCA TERMINATED NORMALLY****
TOTAL RUN TIME: 0 days 0 hours 35 minutes 24 seconds 526 msec
