                         Program Version 4.2.1 -  RELEASE  -
|  1> ! UKS B3LYP def2-SV(P) def2/J D3BJ Opt
|  2> %scf Convergence VeryTight
|  3> SmearTemp 2000
|  4> maxiter 500
|  5> end
|  6> *xyz 0 2
|  7> C 0.014335 0.133011 0.331503
|  8> C -0.896459 1.134156 -0.320904
|  9> C 1.395599 0.109987 -0.247402
| 10> C -0.539714 -1.273797 0.304892
| 11> H -1.866118 1.098276 0.231732
| 12> H -0.481606 2.138623 -0.100059
| 13> H -1.08879 0.948749 -1.384881
| 14> H 1.565125 0.832498 -1.056706
| 15> H 1.673083 -0.90264 -0.636779
| 16> H 2.162445 0.326202 0.539492
| 17> H -1.345636 -1.412934 -0.433157
| 18> H -0.944143 -1.558993 1.309056
| 19> H 0.265764 -2.009744 0.056049
| 20> *
| 21>
| 22>                          ****END OF INPUT****
 Total Charge           Charge          ....    0
 Multiplicity           Mult            ....    2
 Number of Electrons    NEL             ....   33
Dispersion correction           -0.014251608
FINAL SINGLE POINT ENERGY      -157.531967205628
Dispersion correction            ... done
Dispersion correction           -0.014010229
FINAL SINGLE POINT ENERGY      -157.542760926634
Dispersion correction            ... done
Dispersion correction           -0.013927986
FINAL SINGLE POINT ENERGY      -157.548191659629
Dispersion correction            ... done
FINAL SINGLE POINT ENERGY      -157.551300225913
FINAL SINGLE POINT ENERGY      -157.553054523849
FINAL SINGLE POINT ENERGY      -157.554152903065
FINAL SINGLE POINT ENERGY      -157.554845627505
FINAL SINGLE POINT ENERGY      -157.555160147224
FINAL SINGLE POINT ENERGY      -157.555205081480
Dispersion correction            ... done
Dispersion correction           -0.013770436
FINAL SINGLE POINT ENERGY      -157.555211991766
Dispersion correction            ... done
Dispersion correction           -0.013770948
FINAL SINGLE POINT ENERGY      -157.555213633033
Dispersion correction            ... done
                    ***********************HURRAY********************

CARTESIAN COORDINATES (ANGSTROEM)
---------------------------------
  C      0.005926   -0.032822   -0.096080
  C     -0.909467    1.136249   -0.287410
  C      1.476505    0.115162   -0.333563
  C     -0.577104   -1.353045    0.300858
  H     -1.808306    1.067129    0.354763
  H     -0.407546    2.097690   -0.066545
  H     -1.280066    1.211241   -1.336221
  H      1.702742    0.969910   -0.998591
  H      1.917736   -0.793960   -0.787063
  H      2.041920    0.292699    0.610854
  H     -1.325157   -1.717356   -0.438752
  H     -1.119387   -1.293922    1.269684
  H      0.196090   -2.135580    0.400903

 Multiplicity           Mult            ....    2
 Number of Electrons    NEL             ....   33
 Basis Dimension        Dim             ....   74

ORBITAL ENERGIES
----------------
                 SPIN UP ORBITALS
  NO   OCC          E(Eh)            E(eV)
   0   1.0000     -10.179624      -277.0017
   1   1.0000     -10.169416      -276.7239
   2   1.0000     -10.169115      -276.7157
   3   1.0000     -10.168414      -276.6966
   4   1.0000      -0.786609       -21.4047
   5   1.0000      -0.677704       -18.4413
   6   1.0000      -0.676261       -18.4020
   7   1.0000      -0.525770       -14.3069
   8   1.0000      -0.437971       -11.9178
   9   1.0000      -0.434481       -11.8228
  10   1.0000      -0.432663       -11.7734
  11   1.0000      -0.384013       -10.4495
  12   1.0000      -0.380390       -10.3509
  13   1.0000      -0.362490        -9.8639
  14   1.0000      -0.342748        -9.3267
  15   1.0000      -0.341518        -9.2932
  16   1.0000      -0.162685        -4.4269
  17   0.0000       0.055579         1.5124
  18   0.0000       0.104449         2.8422
  19   0.0000       0.107344         2.9210
  20   0.0000       0.119052         3.2396
  21   0.0000       0.124985         3.4010

                 SPIN DOWN ORBITALS
  NO   OCC          E(Eh)            E(eV)
   0   1.0000     -10.170523      -276.7540
   1   1.0000     -10.170223      -276.7458
   2   1.0000     -10.169510      -276.7264
   3   1.0000     -10.165184      -276.6087
   4   1.0000      -0.769128       -20.9290
   5   1.0000      -0.675214       -18.3735
   6   1.0000      -0.673944       -18.3390
   7   1.0000      -0.506962       -13.7951
   8   1.0000      -0.430527       -11.7152
   9   1.0000      -0.429995       -11.7008
  10   1.0000      -0.416698       -11.3389
  11   1.0000      -0.377351       -10.2682
  12   1.0000      -0.374220       -10.1830
  13   1.0000      -0.361125        -9.8267
  14   1.0000      -0.337558        -9.1854
  15   1.0000      -0.336951        -9.1689
  16   0.0000      -0.022283        -0.6063
  17   0.0000       0.057022         1.5516
  18   0.0000       0.105613         2.8739
  19   0.0000       0.108520         2.9530
  20   0.0000       0.121690         3.3113

LOEWDIN ATOMIC CHARGES AND SPIN POPULATIONS
-------------------------------------------
   0 C :   -0.087463    0.828833
   1 C :   -0.311551   -0.025285
   2 C :   -0.312663   -0.025229
   3 C :   -0.314597   -0.025724
   4 H :    0.112915    0.013397
   5 H :    0.113498    0.014363
   6 H :    0.114618    0.052967
   7 H :    0.113233    0.010297
   8 H :    0.113748    0.019003
   9 H :    0.115782    0.054333
  10 H :    0.114768    0.042985
  11 H :    0.114503    0.038706
  12 H :    0.113208    0.001353

  Mayer bond orders larger than 0.100000
B(  0-C ,  1-C ) :   1.1232 B(  0-C ,  2-C ) :   1.1398 B(  0-C ,  3-C ) :   1.1299
B(  1-C ,  4-H ) :   0.9526 B(  1-C ,  5-H ) :   0.9509 B(  1-C ,  6-H ) :   0.9311
B(  2-C ,  7-H ) :   0.9529 B(  2-C ,  8-H ) :   0.9450 B(  2-C ,  9-H ) :   0.9310
B(  3-C , 10-H ) :   0.9398 B(  3-C , 11-H ) :   0.9364 B(  3-C , 12-H ) :   0.9544

Dispersion correction           -0.013771661
FINAL SINGLE POINT ENERGY      -157.555213901045

DIPOLE MOMENT
-------------
                                X             Y             Z
Electronic contribution:      0.05986       0.00340       0.03865
Nuclear contribution   :     -0.05734       0.00030      -0.04303
                        -----------------------------------------
Total Dipole Moment    :      0.00252       0.00370      -0.00438
                        -----------------------------------------
Magnitude (a.u.)       :      0.00626
Magnitude (Debye)      :      0.01592

Rotational constants in cm-1:     0.265484     0.260140     0.141905
Rotational constants in MHz :  7959.020606  7798.786845  4254.210248

                             ****ORCA TERMINATED NORMALLY****
TOTAL RUN TIME: 0 days 0 hours 55 minutes 44 seconds 274 msec
