                         Program Version 4.2.1 -  RELEASE  -
|  1> ! UKS B3LYP def2-SV(P) def2/J D3BJ Opt
|  2> %scf Convergence VeryTight
|  3> SmearTemp 2000
|  4> maxiter 500
|  5> end
|  6> *xyz 0 1
|  7> C 2.509158 -0.452194 -0.089631
|  8> C 1.845379 0.882044 -0.164154
|  9> C 0.497443 0.971391 0.445398
| 10> C -0.355152 -0.256562 0.326054
| 11> C -1.803675 0.204575 0.190969
| 12> C -2.658531 -0.989203 -0.151256
| 13> H 3.296684 -0.468544 -0.884132
| 14> H 1.852416 -1.316628 -0.251305
| 15> H 3.055186 -0.549204 0.877972
| 16> H 1.803868 1.229673 -1.221881
| 17> H 2.516749 1.611079 0.358135
| 18> H 0.580685 1.252894 1.515258
| 19> H -0.039555 1.825981 -0.039886
| 20> H -0.135242 -0.868638 -0.560244
| 21> H -0.298278 -0.809829 1.282528
| 22> H -1.905735 1.0161 -0.558891
| 23> H -2.172033 0.635244 1.153564
| 24> H -3.049356 -1.427579 0.794554
| 25> H -3.496182 -0.729942 -0.811688
| 26> H -2.043828 -1.760657 -0.634084
| 27> *
| 28>
| 29>                          ****END OF INPUT****
 Total Charge           Charge          ....    0
 Multiplicity           Mult            ....    1
 Number of Electrons    NEL             ....   50
Dispersion correction           -0.025282766
FINAL SINGLE POINT ENERGY      -236.694354857202
Dispersion correction            ... done
Dispersion correction           -0.024435142
FINAL SINGLE POINT ENERGY      -236.708024718111
Dispersion correction            ... done
Dispersion correction           -0.024380411
FINAL SINGLE POINT ENERGY      -236.711713648746
Dispersion correction            ... done
FINAL SINGLE POINT ENERGY      -236.714194256850
FINAL SINGLE POINT ENERGY      -236.716087395045
FINAL SINGLE POINT ENERGY      -236.717688118420
FINAL SINGLE POINT ENERGY      -236.719110635194
FINAL SINGLE POINT ENERGY      -236.720345738186
FINAL SINGLE POINT ENERGY      -236.721356271489
FINAL SINGLE POINT ENERGY      -236.722152923845
FINAL SINGLE POINT ENERGY      -236.722738897684
FINAL SINGLE POINT ENERGY      -236.723098059999
FINAL SINGLE POINT ENERGY      -236.723234797849
FINAL SINGLE POINT ENERGY      -236.723245549416
Dispersion correction            ... done
Dispersion correction           -0.024499607
FINAL SINGLE POINT ENERGY      -236.723254750219
Dispersion correction            ... done
Dispersion correction           -0.024498368
FINAL SINGLE POINT ENERGY      -236.723257469602
Dispersion correction            ... done
                    ***********************HURRAY********************

CARTESIAN COORDINATES (ANGSTROEM)
---------------------------------
  C      2.697675   -0.384921    0.355049
  C      1.970057    0.798239   -0.290492
  C      0.531933    1.008634    0.204314
  C     -0.433983   -0.134560   -0.124911
  C     -1.878588    0.147656    0.300900
  C     -2.841532   -0.995542   -0.025859
  H      3.747096   -0.441289    0.014050
  H      2.219415   -1.349251    0.106456
  H      2.707288   -0.292166    1.457995
  H      1.959071    0.668041   -1.390752
  H      2.547643    1.722829   -0.099351
  H      0.543980    1.171669    1.300809
  H      0.137341    1.943716   -0.237868
  H     -0.407242   -0.331590   -1.215683
  H     -0.094389   -1.068387    0.362188
  H     -2.227128    1.076785   -0.190580
  H     -1.902316    0.352946    1.388943
  H     -2.538174   -1.930481    0.481022
  H     -3.873357   -0.761705    0.293593
  H     -2.864787   -1.200619   -1.112544

 Multiplicity           Mult            ....    1
 Number of Electrons    NEL             ....   50
 Basis Dimension        Dim             ....  112

ORBITAL ENERGIES
----------------
                 SPIN UP ORBITALS
  NO   OCC          E(Eh)            E(eV)
   0   1.0000     -10.172440      -276.8062
   1   1.0000     -10.171722      -276.7866
   2   1.0000     -10.169762      -276.7333
   3   1.0000     -10.169191      -276.7178
   4   1.0000     -10.165695      -276.6226
   5   1.0000     -10.165653      -276.6215
   6   1.0000      -0.793300       -21.5868
   7   1.0000      -0.753746       -20.5105
   8   1.0000      -0.693500       -18.8711
   9   1.0000      -0.632390       -17.2082
  10   1.0000      -0.575664       -15.6646
  11   1.0000      -0.554507       -15.0889
  12   1.0000      -0.468540       -12.7496
  13   1.0000      -0.446584       -12.1522
  14   1.0000      -0.432629       -11.7724
  15   1.0000      -0.410866       -11.1802
  16   1.0000      -0.403862       -10.9897
  17   1.0000      -0.383447       -10.4341
  18   1.0000      -0.365471        -9.9450
  19   1.0000      -0.354715        -9.6523
  20   1.0000      -0.339199        -9.2301
  21   1.0000      -0.328277        -8.9329
  22   1.0000      -0.317362        -8.6359
  23   1.0000      -0.315344        -8.5809
  24   1.0000      -0.308241        -8.3877
  25   0.0000       0.058349         1.5878
  26   0.0000       0.071447         1.9442
  27   0.0000       0.084277         2.2933
  28   0.0000       0.087344         2.3767
  29   0.0000       0.110372         3.0034

                 SPIN DOWN ORBITALS
  NO   OCC          E(Eh)            E(eV)
   0   1.0000     -10.172440      -276.8062
   1   1.0000     -10.171722      -276.7866
   2   1.0000     -10.169762      -276.7333
   3   1.0000     -10.169191      -276.7178
   4   1.0000     -10.165695      -276.6226
   5   1.0000     -10.165653      -276.6215
   6   1.0000      -0.793300       -21.5868
   7   1.0000      -0.753746       -20.5105
   8   1.0000      -0.693500       -18.8711
   9   1.0000      -0.632390       -17.2082
  10   1.0000      -0.575664       -15.6646
  11   1.0000      -0.554507       -15.0889
  12   1.0000      -0.468540       -12.7496
  13   1.0000      -0.446584       -12.1522
  14   1.0000      -0.432629       -11.7724
  15   1.0000      -0.410866       -11.1802
  16   1.0000      -0.403862       -10.9897
  17   1.0000      -0.383447       -10.4341
  18   1.0000      -0.365471        -9.9450
  19   1.0000      -0.354715        -9.6523
  20   1.0000      -0.339199        -9.2301
  21   1.0000      -0.328277        -8.9329
  22   1.0000      -0.317362        -8.6359
  23   1.0000      -0.315344        -8.5809
  24   1.0000      -0.308241        -8.3877
  25   0.0000       0.058349         1.5878
  26   0.0000       0.071447         1.9442
  27   0.0000       0.084277         2.2933
  28   0.0000       0.087344         2.3767
  29   0.0000       0.110372         3.0034

LOEWDIN ATOMIC CHARGES AND SPIN POPULATIONS
-------------------------------------------
   0 C :   -0.322197    0.000000
   1 C :   -0.218046    0.000000
   2 C :   -0.210440    0.000000
   3 C :   -0.214044    0.000000
   4 C :   -0.217198    0.000000
   5 C :   -0.318346    0.000000
   6 H :    0.111440    0.000000
   7 H :    0.108423    0.000000
   8 H :    0.109159    0.000000
   9 H :    0.106103    0.000000
  10 H :    0.107234    0.000000
  11 H :    0.104583    0.000000
  12 H :    0.105404    0.000000
  13 H :    0.104577    0.000000
  14 H :    0.105073    0.000000
  15 H :    0.104787    0.000000
  16 H :    0.106013    0.000000
  17 H :    0.108252    0.000000
  18 H :    0.110493    0.000000
  19 H :    0.108729    0.000000

  Mayer bond orders larger than 0.100000
B(  0-C ,  1-C ) :   1.1300 B(  0-C ,  6-H ) :   0.9579 B(  0-C ,  7-H ) :   0.9571
B(  0-C ,  8-H ) :   0.9607 B(  1-C ,  2-C ) :   1.1110 B(  1-C ,  9-H ) :   0.9341
B(  1-C , 10-H ) :   0.9365 B(  2-C ,  3-C ) :   1.1135 B(  2-C , 11-H ) :   0.9298
B(  2-C , 12-H ) :   0.9297 B(  3-C ,  4-C ) :   1.1142 B(  3-C , 13-H ) :   0.9325
B(  3-C , 14-H ) :   0.9276 B(  4-C ,  5-C ) :   1.1342 B(  4-C , 15-H ) :   0.9341
B(  4-C , 16-H ) :   0.9352 B(  5-C , 17-H ) :   0.9596 B(  5-C , 18-H ) :   0.9596
B(  5-C , 19-H ) :   0.9606

Dispersion correction           -0.024498691
FINAL SINGLE POINT ENERGY      -236.723257986582

DIPOLE MOMENT
-------------
                                X             Y             Z
Electronic contribution:      0.12441       1.16613      -0.14452
Nuclear contribution   :     -0.11915      -1.14937       0.14170
                        -----------------------------------------
Total Dipole Moment    :      0.00526       0.01676      -0.00283
                        -----------------------------------------
Magnitude (a.u.)       :      0.01779
Magnitude (Debye)      :      0.04522

Rotational constants in cm-1:     0.288392     0.044463     0.041321
Rotational constants in MHz :  8645.760991  1332.969280  1238.780563

                             ****ORCA TERMINATED NORMALLY****
TOTAL RUN TIME: 0 days 1 hours 30 minutes 37 seconds 780 msec
