                         Program Version 4.2.1 -  RELEASE  -
|  1> ! UKS B3LYP def2-SV(P) def2/J D3BJ Opt
|  2> %scf Convergence VeryTight
|  3> SmearTemp 2000
|  4> maxiter 500
|  5> end
|  6> *xyz 0 1
|  7> C -4.534893 0.808033 -0.096817
|  8> C -3.820418 -0.062913 0.893801
|  9> C -2.477007 -0.539366 0.430264
| 10> C -1.630901 0.525773 -0.19728
| 11> C -0.543477 -0.15648 -1.019485
| 12> C 0.268027 -1.11119 -0.174302
| 13> C 1.744378 -1.037566 -0.472052
| 14> C 2.48297 -0.107172 0.46975
| 15> C 3.593673 0.528715 -0.357859
| 16> C 4.859733 0.688518 0.460817
| 17> H -4.229849 1.873541 0.018542
| 18> H -4.470941 0.460449 -1.137442
| 19> H -5.618573 0.789361 0.184489
| 20> H -4.459797 -0.968164 1.052124
| 21> H -3.751145 0.472895 1.852697
| 22> H -2.565404 -1.377581 -0.278986
| 23> H -1.939276 -0.906834 1.340908
| 24> H -2.181431 1.204863 -0.864888
| 25> H -1.094886 1.099526 0.596528
| 26> H -1.08402 -0.695843 -1.838165
| 27> H 0.127669 0.572694 -1.509149
| 28> H 0.047968 -0.983482 0.909852
| 29> H -0.057606 -2.144449 -0.451272
| 30> H 2.228798 -2.038494 -0.360167
| 31> H 1.846027 -0.704605 -1.528129
| 32> H 2.934536 -0.656834 1.33208
| 33> H 1.821306 0.674729 0.869492
| 34> H 3.83557 -0.058153 -1.254406
| 35> H 3.220701 1.530265 -0.685825
| 36> H 5.729002 0.771775 -0.220203
| 37> H 4.742698 1.647853 1.020381
| 38> H 4.976569 -0.099863 1.224996
| 39> *
| 40>
| 41>                          ****END OF INPUT****
 Total Charge           Charge          ....    0
 Multiplicity           Mult            ....    1
 Number of Electrons    NEL             ....   82
Dispersion correction           -0.046649220
FINAL SINGLE POINT ENERGY      -393.702045707186
Dispersion correction            ... done
Dispersion correction           -0.045056677
FINAL SINGLE POINT ENERGY      -393.721840519068
Dispersion correction            ... done
Dispersion correction           -0.044741827
FINAL SINGLE POINT ENERGY      -393.728077247100
Dispersion correction            ... done
FINAL SINGLE POINT ENERGY      -393.731536094414
FINAL SINGLE POINT ENERGY      -393.734045702774
FINAL SINGLE POINT ENERGY      -393.736189239613
FINAL SINGLE POINT ENERGY      -393.738148888738
FINAL SINGLE POINT ENERGY      -393.739938580813
FINAL SINGLE POINT ENERGY      -393.741541471404
FINAL SINGLE POINT ENERGY      -393.742943992695
FINAL SINGLE POINT ENERGY      -393.746669131569
FINAL SINGLE POINT ENERGY      -393.747117179307
FINAL SINGLE POINT ENERGY      -393.747418348772
FINAL SINGLE POINT ENERGY      -393.747603005470
FINAL SINGLE POINT ENERGY      -393.747678582656
FINAL SINGLE POINT ENERGY      -393.747723186617
FINAL SINGLE POINT ENERGY      -393.747776100792
Dispersion correction            ... done
Dispersion correction           -0.044591301
FINAL SINGLE POINT ENERGY      -393.747783636435
Dispersion correction            ... done
Dispersion correction           -0.044594376
FINAL SINGLE POINT ENERGY      -393.747786780362
Dispersion correction            ... done
                    ***********************HURRAY********************

CARTESIAN COORDINATES (ANGSTROEM)
---------------------------------
  C     -4.979938    0.789602   -0.005488
  C     -4.232490   -0.463504    0.461182
  C     -2.813362   -0.613212   -0.106534
  C     -1.831758    0.477918    0.338568
  C     -0.411745    0.335037   -0.228633
  C      0.357662   -0.893064    0.273791
  C      1.772933   -1.039176   -0.302493
  C      2.754158    0.067603    0.098848
  C      4.176189   -0.163421   -0.421604
  C      5.153791    0.945391   -0.027177
  H     -4.491984    1.717079    0.343472
  H     -5.030013    0.834242   -1.110104
  H     -6.015955    0.800553    0.377804
  H     -4.820450   -1.357077    0.177243
  H     -4.182047   -0.471126    1.567912
  H     -2.862847   -0.625181   -1.214314
  H     -2.423508   -1.603754    0.192352
  H     -2.226384    1.466433    0.039371
  H     -1.782063    0.491572    1.446087
  H     -0.462008    0.303177   -1.335733
  H      0.155912    1.249352    0.024329
  H      0.415142   -0.855704    1.380278
  H     -0.211434   -1.808584    0.028712
  H      2.188342   -2.012574    0.023393
  H      1.712411   -1.089309   -1.408094
  H      2.778184    0.149793    1.204296
  H      2.393593    1.046251   -0.271415
  H      4.547808   -1.136021   -0.043880
  H      4.147557   -0.257405   -1.524845
  H      6.169611    0.748639   -0.415031
  H      4.827583    1.924801   -0.424379
  H      5.227110    1.041669    1.072380

 Multiplicity           Mult            ....    1
 Number of Electrons    NEL             ....   82
 Basis Dimension        Dim             ....  184

ORBITAL ENERGIES
----------------
                 SPIN UP ORBITALS
  NO   OCC          E(Eh)            E(eV)
   0   1.0000     -10.172159      -276.7985
   1   1.0000     -10.171526      -276.7813
   2   1.0000     -10.169670      -276.7308
   3   1.0000     -10.169316      -276.7212
   4   1.0000     -10.169230      -276.7188
   5   1.0000     -10.169171      -276.7172
   6   1.0000     -10.169075      -276.7146
   7   1.0000     -10.168851      -276.7085
   8   1.0000     -10.165594      -276.6199
   9   1.0000     -10.165258      -276.6107
  10   1.0000      -0.801270       -21.8037
  11   1.0000      -0.783905       -21.3312
  12   1.0000      -0.756523       -20.5860
  13   1.0000      -0.720902       -19.6168
  14   1.0000      -0.676663       -18.4129
  15   1.0000      -0.644729       -17.5440
  16   1.0000      -0.599011       -16.2999
  17   1.0000      -0.575332       -15.6556
  18   1.0000      -0.559296       -15.2192
  19   1.0000      -0.545687       -14.8489
  20   1.0000      -0.467181       -12.7126
  21   1.0000      -0.456467       -12.4211
  22   1.0000      -0.452291       -12.3075
  23   1.0000      -0.444515       -12.0959
  24   1.0000      -0.420447       -11.4409
  25   1.0000      -0.417425       -11.3587
  26   1.0000      -0.409971       -11.1559
  27   1.0000      -0.395039       -10.7496
  28   1.0000      -0.387357       -10.5405
  29   1.0000      -0.375808       -10.2263
  30   1.0000      -0.362786        -9.8719
  31   1.0000      -0.359599        -9.7852
  32   1.0000      -0.344158        -9.3650
  33   1.0000      -0.337470        -9.1830
  34   1.0000      -0.328235        -8.9317
  35   1.0000      -0.322684        -8.7807
  36   1.0000      -0.319648        -8.6981
  37   1.0000      -0.316160        -8.6031
  38   1.0000      -0.314565        -8.5597
  39   1.0000      -0.306276        -8.3342
  40   1.0000      -0.296477        -8.0675
  41   0.0000       0.059380         1.6158
  42   0.0000       0.062778         1.7083
  43   0.0000       0.072960         1.9853
  44   0.0000       0.077312         2.1038
  45   0.0000       0.078865         2.1460

                 SPIN DOWN ORBITALS
  NO   OCC          E(Eh)            E(eV)
   0   1.0000     -10.172159      -276.7985
   1   1.0000     -10.171526      -276.7813
   2   1.0000     -10.169670      -276.7308
   3   1.0000     -10.169316      -276.7212
   4   1.0000     -10.169230      -276.7188
   5   1.0000     -10.169171      -276.7172
   6   1.0000     -10.169075      -276.7146
   7   1.0000     -10.168851      -276.7085
   8   1.0000     -10.165594      -276.6199
   9   1.0000     -10.165258      -276.6107
  10   1.0000      -0.801270       -21.8037
  11   1.0000      -0.783905       -21.3312
  12   1.0000      -0.756523       -20.5860
  13   1.0000      -0.720902       -19.6168
  14   1.0000      -0.676663       -18.4129
  15   1.0000      -0.644729       -17.5440
  16   1.0000      -0.599011       -16.2999
  17   1.0000      -0.575332       -15.6556
  18   1.0000      -0.559296       -15.2192
  19   1.0000      -0.545687       -14.8489
  20   1.0000      -0.467181       -12.7126
  21   1.0000      -0.456467       -12.4211
  22   1.0000      -0.452291       -12.3075
  23   1.0000      -0.444515       -12.0959
  24   1.0000      -0.420447       -11.4409
  25   1.0000      -0.417425       -11.3587
  26   1.0000      -0.409971       -11.1559
  27   1.0000      -0.395039       -10.7496
  28   1.0000      -0.387357       -10.5405
  29   1.0000      -0.375808       -10.2263
  30   1.0000      -0.362786        -9.8719
  31   1.0000      -0.359599        -9.7852
  32   1.0000      -0.344158        -9.3650
  33   1.0000      -0.337470        -9.1830
  34   1.0000      -0.328235        -8.9317
  35   1.0000      -0.322684        -8.7807
  36   1.0000      -0.319648        -8.6981
  37   1.0000      -0.316160        -8.6031
  38   1.0000      -0.314565        -8.5597
  39   1.0000      -0.306276        -8.3342
  40   1.0000      -0.296477        -8.0675
  41   0.0000       0.059380         1.6158
  42   0.0000       0.062778         1.7083
  43   0.0000       0.072960         1.9853
  44   0.0000       0.077312         2.1038
  45   0.0000       0.078865         2.1460

LOEWDIN ATOMIC CHARGES AND SPIN POPULATIONS
-------------------------------------------
   0 C :   -0.322232    0.000000
   1 C :   -0.217831    0.000000
   2 C :   -0.213126    0.000000
   3 C :   -0.210892    0.000000
   4 C :   -0.211579    0.000000
   5 C :   -0.211981    0.000000
   6 C :   -0.208220    0.000000
   7 C :   -0.213951    0.000000
   8 C :   -0.217249    0.000000
   9 C :   -0.318337    0.000000
  10 H :    0.108303    0.000000
  11 H :    0.109158    0.000000
  12 H :    0.111420    0.000000
  13 H :    0.107165    0.000000
  14 H :    0.106369    0.000000
  15 H :    0.104525    0.000000
  16 H :    0.105882    0.000000
  17 H :    0.106076    0.000000
  18 H :    0.105190    0.000000
  19 H :    0.105077    0.000000
  20 H :    0.106815    0.000000
  21 H :    0.104925    0.000000
  22 H :    0.106629    0.000000
  23 H :    0.105135    0.000000
  24 H :    0.105303    0.000000
  25 H :    0.104742    0.000000
  26 H :    0.104620    0.000000
  27 H :    0.104315    0.000000
  28 H :    0.106308    0.000000
  29 H :    0.110536    0.000000
  30 H :    0.107923    0.000000
  31 H :    0.108980    0.000000

  Mayer bond orders larger than 0.100000
B(  0-C ,  1-C ) :   1.1319 B(  0-C , 10-H ) :   0.9561 B(  0-C , 11-H ) :   0.9610
B(  0-C , 12-H ) :   0.9579 B(  1-C ,  2-C ) :   1.1082 B(  1-C , 13-H ) :   0.9369
B(  1-C , 14-H ) :   0.9339 B(  2-C ,  3-C ) :   1.1159 B(  2-C , 15-H ) :   0.9305
B(  2-C , 16-H ) :   0.9266 B(  3-C ,  4-C ) :   1.1080 B(  3-C , 17-H ) :   0.9270
B(  3-C , 18-H ) :   0.9268 B(  4-C ,  5-C ) :   1.1196 B(  4-C , 19-H ) :   0.9270
B(  4-C , 20-H ) :   0.9258 B(  5-C ,  6-C ) :   1.1104 B(  5-C , 21-H ) :   0.9263
B(  5-C , 22-H ) :   0.9248 B(  6-C ,  7-C ) :   1.1173 B(  6-C , 23-H ) :   0.9295
B(  6-C , 24-H ) :   0.9253 B(  7-C ,  8-C ) :   1.1125 B(  7-C , 25-H ) :   0.9319
B(  7-C , 26-H ) :   0.9268 B(  8-C ,  9-C ) :   1.1341 B(  8-C , 27-H ) :   0.9339
B(  8-C , 28-H ) :   0.9351 B(  9-C , 29-H ) :   0.9593 B(  9-C , 30-H ) :   0.9597
B(  9-C , 31-H ) :   0.9606

Dispersion correction           -0.044595133
FINAL SINGLE POINT ENERGY      -393.747787678271

DIPOLE MOMENT
-------------
                                X             Y             Z
Electronic contribution:     -0.14650      -1.42597       0.03911
Nuclear contribution   :      0.13827       1.41114      -0.03736
                        -----------------------------------------
Total Dipole Moment    :     -0.00823      -0.01482       0.00175
                        -----------------------------------------
Magnitude (a.u.)       :      0.01705
Magnitude (Debye)      :      0.04333

Rotational constants in cm-1:     0.156049     0.010328     0.009978
Rotational constants in MHz :  4678.239108   309.613653   299.119933

                             ****ORCA TERMINATED NORMALLY****
TOTAL RUN TIME: 0 days 2 hours 15 minutes 52 seconds 278 msec
