                         Program Version 4.2.1 -  RELEASE  -
|  1> ! UKS B3LYP def2-SV(P) def2/J D3BJ Opt
|  2> %scf Convergence VeryTight
|  3> SmearTemp 2000
|  4> maxiter 500
|  5> end
|  6> *xyz 0 1
|  7> C -3.018048 -0.107139 0.048174
|  8> C -1.666729 0.534738 0.233651
|  9> C -0.646255 -0.557306 0.440454
| 10> C 0.731704 -0.033939 0.725321
| 11> C 1.663203 -0.310072 -0.449571
| 12> C 2.950623 0.431401 -0.1322
| 13> H -3.162519 -0.800406 0.907741
| 14> H -3.116533 -0.635126 -0.925289
| 15> H -3.795722 0.687652 0.168784
| 16> H -1.723275 1.154038 1.152328
| 17> H -1.36615 1.171748 -0.610722
| 18> H -1.009653 -1.170738 1.30341
| 19> H -0.584538 -1.191583 -0.470105
| 20> H 0.751713 1.053769 0.949878
| 21> H 1.179172 -0.576536 1.59597
| 22> H 1.228405 -0.016084 -1.413886
| 23> H 1.816918 -1.413815 -0.470653
| 24> H 2.778333 1.274108 0.579845
| 25> H 3.377402 0.803616 -1.081681
| 26> H 3.611946 -0.298325 0.388388
| 27> *
| 28>
| 29>                          ****END OF INPUT****
 Total Charge           Charge          ....    0
 Multiplicity           Mult            ....    1
 Number of Electrons    NEL             ....   50
Dispersion correction           -0.024875474
FINAL SINGLE POINT ENERGY      -236.699157416769
Dispersion correction            ... done
Dispersion correction           -0.024160056
FINAL SINGLE POINT ENERGY      -236.712871888777
Dispersion correction            ... done
Dispersion correction           -0.024077989
FINAL SINGLE POINT ENERGY      -236.715777683813
Dispersion correction            ... done
FINAL SINGLE POINT ENERGY      -236.717341143460
FINAL SINGLE POINT ENERGY      -236.718329947187
FINAL SINGLE POINT ENERGY      -236.719249220374
FINAL SINGLE POINT ENERGY      -236.720201864779
FINAL SINGLE POINT ENERGY      -236.721102423878
FINAL SINGLE POINT ENERGY      -236.721845018759
FINAL SINGLE POINT ENERGY      -236.722428414038
FINAL SINGLE POINT ENERGY      -236.722832200396
FINAL SINGLE POINT ENERGY      -236.723059211972
FINAL SINGLE POINT ENERGY      -236.723131667499
FINAL SINGLE POINT ENERGY      -236.723163873485
FINAL SINGLE POINT ENERGY      -236.723217769807
Dispersion correction            ... done
Dispersion correction           -0.024520756
FINAL SINGLE POINT ENERGY      -236.723227464842
Dispersion correction            ... done
Dispersion correction           -0.024521393
FINAL SINGLE POINT ENERGY      -236.723229814786
Dispersion correction            ... done
                    ***********************HURRAY********************

CARTESIAN COORDINATES (ANGSTROEM)
---------------------------------
  C     -3.055899   -0.095739   -0.003905
  C     -1.599395    0.367582    0.074366
  C     -0.666069   -0.688636    0.679067
  C      0.785919   -0.231674    0.873337
  C      1.541587    0.087754   -0.421379
  C      3.007696    0.456746   -0.182934
  H     -3.452444   -0.339945    0.999247
  H     -3.151449   -1.004476   -0.627274
  H     -3.706900    0.682106   -0.442723
  H     -1.536923    1.293788    0.678873
  H     -1.250011    0.640434   -0.938470
  H     -1.073834   -0.999544    1.660366
  H     -0.682475   -1.596003    0.042302
  H      0.802545    0.659138    1.533195
  H      1.337458   -1.022483    1.418639
  H      1.040107    0.917578   -0.953829
  H      1.485122   -0.787658   -1.098507
  H      3.093588    1.348881    0.465809
  H      3.529381    0.680121   -1.131006
  H      3.551993   -0.367970    0.314661

 Multiplicity           Mult            ....    1
 Number of Electrons    NEL             ....   50
 Basis Dimension        Dim             ....  112

ORBITAL ENERGIES
----------------
                 SPIN UP ORBITALS
  NO   OCC          E(Eh)            E(eV)
   0   1.0000     -10.171629      -276.7841
   1   1.0000     -10.171397      -276.7778
   2   1.0000     -10.170037      -276.7408
   3   1.0000     -10.169962      -276.7387
   4   1.0000     -10.166065      -276.6327
   5   1.0000     -10.165848      -276.6268
   6   1.0000      -0.793485       -21.5918
   7   1.0000      -0.753087       -20.4925
   8   1.0000      -0.696339       -18.9483
   9   1.0000      -0.624415       -16.9912
  10   1.0000      -0.585730       -15.9385
  11   1.0000      -0.551691       -15.0123
  12   1.0000      -0.463427       -12.6105
  13   1.0000      -0.450161       -12.2495
  14   1.0000      -0.432657       -11.7732
  15   1.0000      -0.409725       -11.1492
  16   1.0000      -0.404914       -11.0183
  17   1.0000      -0.385889       -10.5006
  18   1.0000      -0.359484        -9.7821
  19   1.0000      -0.356080        -9.6894
  20   1.0000      -0.343558        -9.3487
  21   1.0000      -0.328319        -8.9340
  22   1.0000      -0.318209        -8.6589
  23   1.0000      -0.313736        -8.5372
  24   1.0000      -0.307512        -8.3678
  25   0.0000       0.059854         1.6287
  26   0.0000       0.071144         1.9359
  27   0.0000       0.084589         2.3018
  28   0.0000       0.087300         2.3755
  29   0.0000       0.102058         2.7771

                 SPIN DOWN ORBITALS
  NO   OCC          E(Eh)            E(eV)
   0   1.0000     -10.171629      -276.7841
   1   1.0000     -10.171397      -276.7778
   2   1.0000     -10.170037      -276.7408
   3   1.0000     -10.169962      -276.7387
   4   1.0000     -10.166065      -276.6327
   5   1.0000     -10.165848      -276.6268
   6   1.0000      -0.793485       -21.5918
   7   1.0000      -0.753087       -20.4925
   8   1.0000      -0.696339       -18.9483
   9   1.0000      -0.624415       -16.9912
  10   1.0000      -0.585730       -15.9385
  11   1.0000      -0.551691       -15.0123
  12   1.0000      -0.463427       -12.6105
  13   1.0000      -0.450161       -12.2495
  14   1.0000      -0.432657       -11.7732
  15   1.0000      -0.409725       -11.1492
  16   1.0000      -0.404914       -11.0183
  17   1.0000      -0.385889       -10.5006
  18   1.0000      -0.359484        -9.7821
  19   1.0000      -0.356080        -9.6894
  20   1.0000      -0.343558        -9.3487
  21   1.0000      -0.328319        -8.9340
  22   1.0000      -0.318209        -8.6589
  23   1.0000      -0.313736        -8.5372
  24   1.0000      -0.307512        -8.3678
  25   0.0000       0.059854         1.6287
  26   0.0000       0.071144         1.9359
  27   0.0000       0.084589         2.3018
  28   0.0000       0.087300         2.3755
  29   0.0000       0.102058         2.7771

LOEWDIN ATOMIC CHARGES AND SPIN POPULATIONS
-------------------------------------------
   0 C :   -0.318693    0.000000
   1 C :   -0.220588    0.000000
   2 C :   -0.210881    0.000000
   3 C :   -0.210760    0.000000
   4 C :   -0.220645    0.000000
   5 C :   -0.318916    0.000000
   6 H :    0.108190    0.000000
   7 H :    0.108889    0.000000
   8 H :    0.110920    0.000000
   9 H :    0.105457    0.000000
  10 H :    0.106543    0.000000
  11 H :    0.105721    0.000000
  12 H :    0.104536    0.000000
  13 H :    0.104371    0.000000
  14 H :    0.105900    0.000000
  15 H :    0.106172    0.000000
  16 H :    0.105576    0.000000
  17 H :    0.108973    0.000000
  18 H :    0.110685    0.000000
  19 H :    0.108550    0.000000

  Mayer bond orders larger than 0.100000
B(  0-C ,  1-C ) :   1.1355 B(  0-C ,  6-H ) :   0.9592 B(  0-C ,  7-H ) :   0.9598
B(  0-C ,  8-H ) :   0.9594 B(  1-C ,  2-C ) :   1.1153 B(  1-C ,  9-H ) :   0.9362
B(  1-C , 10-H ) :   0.9306 B(  2-C ,  3-C ) :   1.1141 B(  2-C , 11-H ) :   0.9308
B(  2-C , 12-H ) :   0.9285 B(  3-C ,  4-C ) :   1.1102 B(  3-C , 13-H ) :   0.9295
B(  3-C , 14-H ) :   0.9316 B(  4-C ,  5-C ) :   1.1355 B(  4-C , 15-H ) :   0.9320
B(  4-C , 16-H ) :   0.9368 B(  5-C , 17-H ) :   0.9595 B(  5-C , 18-H ) :   0.9592
B(  5-C , 19-H ) :   0.9592

Dispersion correction           -0.024522096
FINAL SINGLE POINT ENERGY      -236.723230085644

DIPOLE MOMENT
-------------
                                X             Y             Z
Electronic contribution:      0.03382      -0.26256       0.34308
Nuclear contribution   :     -0.03619       0.27189      -0.35724
                        -----------------------------------------
Total Dipole Moment    :     -0.00237       0.00933      -0.01415
                        -----------------------------------------
Magnitude (a.u.)       :      0.01712
Magnitude (Debye)      :      0.04351

Rotational constants in cm-1:     0.337854     0.043045     0.040836
Rotational constants in MHz : 10128.617485  1290.455277  1224.240386

                             ****ORCA TERMINATED NORMALLY****
TOTAL RUN TIME: 0 days 1 hours 35 minutes 46 seconds 851 msec
