                         Program Version 4.2.1 -  RELEASE  -
|  1> ! UKS B3LYP def2-SV(P) def2/J D3BJ Opt
|  2> %scf Convergence VeryTight
|  3> SmearTemp 2000
|  4> maxiter 500
|  5> end
|  6> *xyz 0 1
|  7> C 2.783649 0.014649 -0.085129
|  8> C 1.604167 -0.005695 0.853536
|  9> C 0.338672 0.504844 0.173708
| 10> C -0.422402 -0.639444 -0.38559
| 11> C -1.893068 -0.606723 -0.246137
| 12> C -2.480776 0.613593 0.385794
| 13> H 3.710063 0.295149 0.473302
| 14> H 2.65867 0.774875 -0.875646
| 15> H 2.928698 -0.971596 -0.5712
| 16> H 1.803248 0.530664 1.797922
| 17> H 1.440504 -1.074442 1.138117
| 18> H 0.677136 1.194201 -0.639808
| 19> H -0.182889 1.125845 0.905089
| 20> H -0.115762 -0.748581 -1.457186
| 21> H -0.054101 -1.57959 0.099377
| 22> H -2.300563 -1.48631 0.314288
| 23> H -2.353754 -0.675912 -1.264905
| 24> H -2.451736 1.504055 -0.289738
| 25> H -2.115736 0.830527 1.401915
| 26> H -3.574019 0.399893 0.515333
| 27> *
| 28>
| 29>                          ****END OF INPUT****
 Total Charge           Charge          ....    0
 Multiplicity           Mult            ....    1
 Number of Electrons    NEL             ....   50
Dispersion correction           -0.025565870
FINAL SINGLE POINT ENERGY      -236.683236177688
Dispersion correction            ... done
Dispersion correction           -0.024493323
FINAL SINGLE POINT ENERGY      -236.698626635154
Dispersion correction            ... done
Dispersion correction           -0.024474216
FINAL SINGLE POINT ENERGY      -236.702090734452
Dispersion correction            ... done
FINAL SINGLE POINT ENERGY      -236.704136151293
FINAL SINGLE POINT ENERGY      -236.705811909712
FINAL SINGLE POINT ENERGY      -236.707463530980
FINAL SINGLE POINT ENERGY      -236.709131640422
FINAL SINGLE POINT ENERGY      -236.710721591993
FINAL SINGLE POINT ENERGY      -236.712113800239
FINAL SINGLE POINT ENERGY      -236.713239515795
FINAL SINGLE POINT ENERGY      -236.719237084242
FINAL SINGLE POINT ENERGY      -236.720209315344
FINAL SINGLE POINT ENERGY      -236.721062412656
FINAL SINGLE POINT ENERGY      -236.721722414318
FINAL SINGLE POINT ENERGY      -236.722151663614
FINAL SINGLE POINT ENERGY      -236.722334967029
FINAL SINGLE POINT ENERGY      -236.722350198503
Dispersion correction            ... done
Dispersion correction           -0.024993990
FINAL SINGLE POINT ENERGY      -236.722357329575
Dispersion correction            ... done
Dispersion correction           -0.024992216
FINAL SINGLE POINT ENERGY      -236.722361124911
Dispersion correction            ... done
                    ***********************HURRAY********************

CARTESIAN COORDINATES (ANGSTROEM)
---------------------------------
  C      2.758941   -0.267041   -0.273668
  C      1.832215    0.338833    0.785019
  C      0.402875    0.622918    0.298967
  C     -0.404074   -0.628096   -0.068026
  C     -1.831243   -0.343344   -0.559754
  C     -2.758675    0.273751    0.491946
  H      3.784128   -0.392451    0.119144
  H      2.819264    0.382769   -1.167212
  H      2.411395   -1.260400   -0.607674
  H      2.275145    1.285425    1.147796
  H      1.788472   -0.332793    1.665077
  H      0.443841    1.298950   -0.579488
  H     -0.129220    1.182586    1.090395
  H      0.130311   -1.191102   -0.855526
  H     -0.448755   -1.300776    0.812787
  H     -2.276889   -1.290570   -0.917463
  H     -1.783232    0.322186   -1.444217
  H     -2.411065    1.270571    0.815343
  H     -2.819852   -0.365950    1.392677
  H     -3.783582    0.394536    0.096918

 Multiplicity           Mult            ....    1
 Number of Electrons    NEL             ....   50
 Basis Dimension        Dim             ....  112

ORBITAL ENERGIES
----------------
                 SPIN UP ORBITALS
  NO   OCC          E(Eh)            E(eV)
   0   1.0000     -10.172139      -276.7980
   1   1.0000     -10.172129      -276.7977
   2   1.0000     -10.169517      -276.7266
   3   1.0000     -10.169456      -276.7250
   4   1.0000     -10.165099      -276.6064
   5   1.0000     -10.165081      -276.6059
   6   1.0000      -0.793122       -21.5819
   7   1.0000      -0.752290       -20.4708
   8   1.0000      -0.690543       -18.7906
   9   1.0000      -0.638359       -17.3706
  10   1.0000      -0.578360       -15.7380
  11   1.0000      -0.548002       -14.9119
  12   1.0000      -0.460298       -12.5253
  13   1.0000      -0.445354       -12.1187
  14   1.0000      -0.443415       -12.0659
  15   1.0000      -0.409396       -11.1402
  16   1.0000      -0.402874       -10.9628
  17   1.0000      -0.388470       -10.5708
  18   1.0000      -0.361434        -9.8351
  19   1.0000      -0.350076        -9.5260
  20   1.0000      -0.345657        -9.4058
  21   1.0000      -0.329530        -8.9670
  22   1.0000      -0.316855        -8.6221
  23   1.0000      -0.313972        -8.5436
  24   1.0000      -0.304326        -8.2811
  25   0.0000       0.056881         1.5478
  26   0.0000       0.075419         2.0523
  27   0.0000       0.081761         2.2248
  28   0.0000       0.087913         2.3922
  29   0.0000       0.114290         3.1100

                 SPIN DOWN ORBITALS
  NO   OCC          E(Eh)            E(eV)
   0   1.0000     -10.172139      -276.7980
   1   1.0000     -10.172129      -276.7977
   2   1.0000     -10.169517      -276.7266
   3   1.0000     -10.169456      -276.7250
   4   1.0000     -10.165099      -276.6064
   5   1.0000     -10.165081      -276.6059
   6   1.0000      -0.793122       -21.5819
   7   1.0000      -0.752290       -20.4708
   8   1.0000      -0.690543       -18.7906
   9   1.0000      -0.638359       -17.3706
  10   1.0000      -0.578360       -15.7380
  11   1.0000      -0.548002       -14.9119
  12   1.0000      -0.460298       -12.5253
  13   1.0000      -0.445354       -12.1187
  14   1.0000      -0.443415       -12.0659
  15   1.0000      -0.409396       -11.1402
  16   1.0000      -0.402874       -10.9628
  17   1.0000      -0.388470       -10.5708
  18   1.0000      -0.361434        -9.8351
  19   1.0000      -0.350076        -9.5260
  20   1.0000      -0.345657        -9.4058
  21   1.0000      -0.329530        -8.9670
  22   1.0000      -0.316855        -8.6221
  23   1.0000      -0.313972        -8.5436
  24   1.0000      -0.304326        -8.2811
  25   0.0000       0.056881         1.5478
  26   0.0000       0.075419         2.0523
  27   0.0000       0.081761         2.2248
  28   0.0000       0.087913         2.3922
  29   0.0000       0.114290         3.1100

LOEWDIN ATOMIC CHARGES AND SPIN POPULATIONS
-------------------------------------------
   0 C :   -0.322019    0.000000
   1 C :   -0.217005    0.000000
   2 C :   -0.213801    0.000000
   3 C :   -0.213820    0.000000
   4 C :   -0.216992    0.000000
   5 C :   -0.322020    0.000000
   6 H :    0.111348    0.000000
   7 H :    0.108772    0.000000
   8 H :    0.108777    0.000000
   9 H :    0.106998    0.000000
  10 H :    0.106097    0.000000
  11 H :    0.104259    0.000000
  12 H :    0.106597    0.000000
  13 H :    0.106557    0.000000
  14 H :    0.104301    0.000000
  15 H :    0.106988    0.000000
  16 H :    0.106079    0.000000
  17 H :    0.108854    0.000000
  18 H :    0.108694    0.000000
  19 H :    0.111335    0.000000

  Mayer bond orders larger than 0.100000
B(  0-C ,  1-C ) :   1.1335 B(  0-C ,  6-H ) :   0.9582 B(  0-C ,  7-H ) :   0.9611
B(  0-C ,  8-H ) :   0.9558 B(  1-C ,  2-C ) :   1.1090 B(  1-C ,  9-H ) :   0.9355
B(  1-C , 10-H ) :   0.9341 B(  2-C ,  3-C ) :   1.1093 B(  2-C , 11-H ) :   0.9316
B(  2-C , 12-H ) :   0.9276 B(  3-C ,  4-C ) :   1.1092 B(  3-C , 13-H ) :   0.9277
B(  3-C , 14-H ) :   0.9314 B(  4-C ,  5-C ) :   1.1335 B(  4-C , 15-H ) :   0.9355
B(  4-C , 16-H ) :   0.9341 B(  5-C , 17-H ) :   0.9558 B(  5-C , 18-H ) :   0.9611
B(  5-C , 19-H ) :   0.9583

Dispersion correction           -0.024991246
FINAL SINGLE POINT ENERGY      -236.722362345577

DIPOLE MOMENT
-------------
                                X             Y             Z
Electronic contribution:      0.00033      -0.00774       0.00429
Nuclear contribution   :     -0.00010       0.00779      -0.00411
                        -----------------------------------------
Total Dipole Moment    :      0.00023       0.00005       0.00017
                        -----------------------------------------
Magnitude (a.u.)       :      0.00029
Magnitude (Debye)      :      0.00074

Rotational constants in cm-1:     0.296183     0.047346     0.043951
Rotational constants in MHz :  8879.328555  1419.387375  1317.607086

                             ****ORCA TERMINATED NORMALLY****
TOTAL RUN TIME: 0 days 2 hours 46 minutes 14 seconds 916 msec
