                         Program Version 4.2.1 -  RELEASE  -
|  1> ! UKS B3LYP def2-SV(P) def2/J D3BJ Opt
|  2> %scf Convergence VeryTight
|  3> SmearTemp 2000
|  4> maxiter 500
|  5> end
|  6> *xyz 0 1
|  7> C 2.373824 -0.333291 0.648418
|  8> C 1.540505 -0.351136 -0.622748
|  9> C 0.61961 0.833627 -0.716445
| 10> C -0.827835 0.442491 -0.857051
| 11> C -1.615625 0.580617 0.415286
| 12> C -2.1803 -0.782525 0.791075
| 13> H 3.328306 -0.878683 0.459355
| 14> H 1.878753 -0.849451 1.488313
| 15> H 2.628946 0.725924 0.869934
| 16> H 2.266412 -0.407077 -1.472195
| 17> H 0.950868 -1.300937 -0.671452
| 18> H 0.918492 1.398172 -1.636065
| 19> H 0.789085 1.523378 0.131153
| 20> H -1.312211 1.088021 -1.631362
| 21> H -0.856651 -0.589757 -1.276873
| 22> H -1.04365 1.029381 1.247559
| 23> H -2.508578 1.239611 0.273901
| 24> H -3.189924 -0.687097 1.26327
| 25> H -2.313356 -1.391091 -0.137076
| 26> H -1.446672 -1.290176 1.433001
| 27> *
| 28>
| 29>                          ****END OF INPUT****
 Total Charge           Charge          ....    0
 Multiplicity           Mult            ....    1
 Number of Electrons    NEL             ....   50
Dispersion correction           -0.025313698
FINAL SINGLE POINT ENERGY      -236.687436614686
Dispersion correction            ... done
Dispersion correction           -0.024448081
FINAL SINGLE POINT ENERGY      -236.700822495547
Dispersion correction            ... done
Dispersion correction           -0.024481036
FINAL SINGLE POINT ENERGY      -236.704092191629
Dispersion correction            ... done
FINAL SINGLE POINT ENERGY      -236.706184518727
FINAL SINGLE POINT ENERGY      -236.707826186627
FINAL SINGLE POINT ENERGY      -236.709288898068
FINAL SINGLE POINT ENERGY      -236.710621173880
FINAL SINGLE POINT ENERGY      -236.711734985473
FINAL SINGLE POINT ENERGY      -236.712561721052
FINAL SINGLE POINT ENERGY      -236.713078507566
FINAL SINGLE POINT ENERGY      -236.713739527520
FINAL SINGLE POINT ENERGY      -236.713761843692
FINAL SINGLE POINT ENERGY      -236.713801489152
FINAL SINGLE POINT ENERGY      -236.713831054301
FINAL SINGLE POINT ENERGY      -236.713871383199
FINAL SINGLE POINT ENERGY      -236.713887343198
FINAL SINGLE POINT ENERGY      -236.713893609913
Dispersion correction            ... done
Dispersion correction           -0.025204779
FINAL SINGLE POINT ENERGY      -236.713894263858
Dispersion correction            ... done
Dispersion correction           -0.025208428
FINAL SINGLE POINT ENERGY      -236.713894650225
Dispersion correction            ... done
                    ***********************HURRAY********************

CARTESIAN COORDINATES (ANGSTROEM)
---------------------------------
  C      2.512875   -0.016388    0.733093
  C      1.440665   -0.388937   -0.294102
  C      0.651936    0.826389   -0.836772
  C     -0.866133    0.616219   -0.924314
  C     -1.549490    0.322973    0.435508
  C     -2.270272   -1.027459    0.490313
  H      3.001985   -0.911578    1.157426
  H      2.074268    0.558859    1.570103
  H      3.299566    0.617663    0.281973
  H      1.915717   -0.923783   -1.137717
  H      0.745458   -1.118781    0.160530
  H      1.032231    1.101061   -1.838075
  H      0.849982    1.709896   -0.198379
  H     -1.318958    1.512188   -1.386895
  H     -1.074007   -0.213047   -1.629215
  H     -0.797957    0.361852    1.246917
  H     -2.274194    1.124704    0.667507
  H     -2.651473   -1.245557    1.504468
  H     -3.129691   -1.053266   -0.205451
  H     -1.592511   -1.853010    0.203081

 Multiplicity           Mult            ....    1
 Number of Electrons    NEL             ....   50
 Basis Dimension        Dim             ....  112

ORBITAL ENERGIES
----------------
                 SPIN UP ORBITALS
  NO   OCC          E(Eh)            E(eV)
   0   1.0000     -10.171813      -276.7891
   1   1.0000     -10.171505      -276.7807
   2   1.0000     -10.169715      -276.7320
   3   1.0000     -10.169491      -276.7259
   4   1.0000     -10.166318      -276.6396
   5   1.0000     -10.165935      -276.6292
   6   1.0000      -0.791901       -21.5487
   7   1.0000      -0.749573       -20.3969
   8   1.0000      -0.696821       -18.9615
   9   1.0000      -0.626999       -17.0615
  10   1.0000      -0.582204       -15.8426
  11   1.0000      -0.553382       -15.0583
  12   1.0000      -0.466584       -12.6964
  13   1.0000      -0.440080       -11.9752
  14   1.0000      -0.433524       -11.7968
  15   1.0000      -0.412280       -11.2187
  16   1.0000      -0.402998       -10.9661
  17   1.0000      -0.388645       -10.5756
  18   1.0000      -0.368858       -10.0371
  19   1.0000      -0.343543        -9.3483
  20   1.0000      -0.341128        -9.2826
  21   1.0000      -0.334998        -9.1158
  22   1.0000      -0.316849        -8.6219
  23   1.0000      -0.307697        -8.3728
  24   1.0000      -0.306067        -8.3285
  25   0.0000       0.056904         1.5484
  26   0.0000       0.075490         2.0542
  27   0.0000       0.080014         2.1773
  28   0.0000       0.088029         2.3954
  29   0.0000       0.112976         3.0742

                 SPIN DOWN ORBITALS
  NO   OCC          E(Eh)            E(eV)
   0   1.0000     -10.171813      -276.7891
   1   1.0000     -10.171505      -276.7807
   2   1.0000     -10.169715      -276.7320
   3   1.0000     -10.169491      -276.7259
   4   1.0000     -10.166318      -276.6396
   5   1.0000     -10.165935      -276.6292
   6   1.0000      -0.791901       -21.5487
   7   1.0000      -0.749573       -20.3969
   8   1.0000      -0.696821       -18.9615
   9   1.0000      -0.626999       -17.0615
  10   1.0000      -0.582204       -15.8426
  11   1.0000      -0.553382       -15.0583
  12   1.0000      -0.466584       -12.6964
  13   1.0000      -0.440080       -11.9752
  14   1.0000      -0.433524       -11.7968
  15   1.0000      -0.412280       -11.2187
  16   1.0000      -0.402998       -10.9661
  17   1.0000      -0.388645       -10.5756
  18   1.0000      -0.368858       -10.0371
  19   1.0000      -0.343543        -9.3483
  20   1.0000      -0.341128        -9.2826
  21   1.0000      -0.334998        -9.1158
  22   1.0000      -0.316849        -8.6219
  23   1.0000      -0.307697        -8.3728
  24   1.0000      -0.306067        -8.3285
  25   0.0000       0.056904         1.5484
  26   0.0000       0.075490         2.0542
  27   0.0000       0.080014         2.1773
  28   0.0000       0.088029         2.3954
  29   0.0000       0.112976         3.0742

LOEWDIN ATOMIC CHARGES AND SPIN POPULATIONS
-------------------------------------------
   0 C :   -0.318200    0.000000
   1 C :   -0.224071    0.000000
   2 C :   -0.209761    0.000000
   3 C :   -0.211558    0.000000
   4 C :   -0.223202    0.000000
   5 C :   -0.319759    0.000000
   6 H :    0.109533    0.000000
   7 H :    0.106649    0.000000
   8 H :    0.108668    0.000000
   9 H :    0.108904    0.000000
  10 H :    0.107612    0.000000
  11 H :    0.106968    0.000000
  12 H :    0.103902    0.000000
  13 H :    0.108024    0.000000
  14 H :    0.105187    0.000000
  15 H :    0.107240    0.000000
  16 H :    0.109173    0.000000
  17 H :    0.109307    0.000000
  18 H :    0.109205    0.000000
  19 H :    0.106178    0.000000

  Mayer bond orders larger than 0.100000
B(  0-C ,  1-C ) :   1.1374 B(  0-C ,  6-H ) :   0.9583 B(  0-C ,  7-H ) :   0.9596
B(  0-C ,  8-H ) :   0.9610 B(  1-C ,  2-C ) :   1.0709 B(  1-C ,  9-H ) :   0.9374
B(  1-C , 10-H ) :   0.9428 B(  2-C ,  3-C ) :   1.1241 B(  2-C , 11-H ) :   0.9328
B(  2-C , 12-H ) :   0.9450 B(  3-C ,  4-C ) :   1.0607 B(  3-C , 13-H ) :   0.9342
B(  3-C , 14-H ) :   0.9452 B(  4-C ,  5-C ) :   1.1391 B(  4-C , 15-H ) :   0.9453
B(  4-C , 16-H ) :   0.9390 B(  5-C , 17-H ) :   0.9587 B(  5-C , 18-H ) :   0.9589
B(  5-C , 19-H ) :   0.9574

Dispersion correction           -0.025208624
FINAL SINGLE POINT ENERGY      -236.713894706861

DIPOLE MOMENT
-------------
                                X             Y             Z
Electronic contribution:     -0.22453       0.88235      -1.05209
Nuclear contribution   :      0.21030      -0.87032       1.03632
                        -----------------------------------------
Total Dipole Moment    :     -0.01423       0.01204      -0.01577
                        -----------------------------------------
Magnitude (a.u.)       :      0.02441
Magnitude (Debye)      :      0.06205

Rotational constants in cm-1:     0.181293     0.058013     0.050330
Rotational constants in MHz :  5435.038083  1739.196375  1508.848036

                             ****ORCA TERMINATED NORMALLY****
TOTAL RUN TIME: 0 days 2 hours 3 minutes 17 seconds 203 msec
