                         Program Version 4.2.1 -  RELEASE  -
|  1> ! UKS B3LYP def2-SV(P) def2/J D3BJ Opt
|  2> %scf Convergence VeryTight
|  3> SmearTemp 2000
|  4> maxiter 500
|  5> end
|  6> *xyz 0 1
|  7> C -2.810096 0.38517 0.372528
|  8> C -1.637353 -0.544657 0.522519
|  9> C -0.665479 -0.47987 -0.618442
| 10> C 0.728216 -0.729398 -0.053307
| 11> C 1.420357 0.601068 -0.001583
| 12> C 2.900818 0.505358 -0.287842
| 13> H -2.572349 1.325474 0.889253
| 14> H -3.091396 0.546127 -0.694336
| 15> H -3.699454 -0.085356 0.863802
| 16> H -1.105039 -0.29895 1.47613
| 17> H -2.006369 -1.590515 0.676275
| 18> H -0.68963 0.466018 -1.180649
| 19> H -0.896641 -1.32675 -1.305094
| 20> H 1.284002 -1.489222 -0.643449
| 21> H 0.668043 -1.143945 0.984784
| 22> H 0.981038 1.325701 -0.713336
| 23> H 1.32761 1.011869 1.033565
| 24> H 3.477729 0.287944 0.646375
| 25> H 3.147687 -0.264779 -1.035567
| 26> H 3.238305 1.498711 -0.669221
| 27> *
| 28>
| 29>                          ****END OF INPUT****
 Total Charge           Charge          ....    0
 Multiplicity           Mult            ....    1
 Number of Electrons    NEL             ....   50
Dispersion correction           -0.024953703
FINAL SINGLE POINT ENERGY      -236.688601199304
Dispersion correction            ... done
Dispersion correction           -0.024047780
FINAL SINGLE POINT ENERGY      -236.704118561817
Dispersion correction            ... done
Dispersion correction           -0.023954553
FINAL SINGLE POINT ENERGY      -236.707692948606
Dispersion correction            ... done
FINAL SINGLE POINT ENERGY      -236.710112888943
FINAL SINGLE POINT ENERGY      -236.712135048899
FINAL SINGLE POINT ENERGY      -236.714017489728
FINAL SINGLE POINT ENERGY      -236.715810386412
FINAL SINGLE POINT ENERGY      -236.717482652071
FINAL SINGLE POINT ENERGY      -236.718972282025
FINAL SINGLE POINT ENERGY      -236.720240290611
FINAL SINGLE POINT ENERGY      -236.721276877895
FINAL SINGLE POINT ENERGY      -236.722080130867
FINAL SINGLE POINT ENERGY      -236.722653561195
FINAL SINGLE POINT ENERGY      -236.723003166838
FINAL SINGLE POINT ENERGY      -236.723147505995
FINAL SINGLE POINT ENERGY      -236.723170788764
FINAL SINGLE POINT ENERGY      -236.723204471052
Dispersion correction            ... done
Dispersion correction           -0.024516833
FINAL SINGLE POINT ENERGY      -236.723213944802
Dispersion correction            ... done
Dispersion correction           -0.024522696
FINAL SINGLE POINT ENERGY      -236.723216926779
Dispersion correction            ... done
                    ***********************HURRAY********************

CARTESIAN COORDINATES (ANGSTROEM)
---------------------------------
  C     -3.027724    0.061803    0.451104
  C     -1.517103   -0.094837    0.638275
  C     -0.773733   -0.354765   -0.677107
  C      0.731896   -0.610103   -0.527456
  C      1.538426    0.581493    0.002071
  C      3.043334    0.310026    0.054156
  H     -3.259943    0.907997   -0.222718
  H     -3.471792   -0.847541    0.004149
  H     -3.539668    0.247337    1.412415
  H     -1.114137    0.814306    1.122666
  H     -1.313822   -0.929166    1.338439
  H     -0.933524    0.503625   -1.360262
  H     -1.235163   -1.228844   -1.177083
  H      1.142543   -0.905137   -1.512463
  H      0.889579   -1.480612    0.140632
  H      1.343037    1.463575   -0.639196
  H      1.183667    0.854457    1.013050
  H      3.271014   -0.548491    0.713679
  H      3.442306    0.070944   -0.949387
  H      3.600805    1.183930    0.437441

 Multiplicity           Mult            ....    1
 Number of Electrons    NEL             ....   50
 Basis Dimension        Dim             ....  112

ORBITAL ENERGIES
----------------
                 SPIN UP ORBITALS
  NO   OCC          E(Eh)            E(eV)
   0   1.0000     -10.171456      -276.7794
   1   1.0000     -10.171269      -276.7743
   2   1.0000     -10.169909      -276.7373
   3   1.0000     -10.169806      -276.7345
   4   1.0000     -10.165909      -276.6285
   5   1.0000     -10.165821      -276.6261
   6   1.0000      -0.793492       -21.5920
   7   1.0000      -0.753096       -20.4928
   8   1.0000      -0.696340       -18.9484
   9   1.0000      -0.624487       -16.9931
  10   1.0000      -0.585646       -15.9362
  11   1.0000      -0.551770       -15.0144
  12   1.0000      -0.463229       -12.6051
  13   1.0000      -0.450362       -12.2550
  14   1.0000      -0.432588       -11.7713
  15   1.0000      -0.409630       -11.1466
  16   1.0000      -0.404967       -11.0197
  17   1.0000      -0.385888       -10.5005
  18   1.0000      -0.359626        -9.7859
  19   1.0000      -0.356087        -9.6896
  20   1.0000      -0.343488        -9.3468
  21   1.0000      -0.328291        -8.9333
  22   1.0000      -0.318323        -8.6620
  23   1.0000      -0.313759        -8.5378
  24   1.0000      -0.307429        -8.3656
  25   0.0000       0.059917         1.6304
  26   0.0000       0.070863         1.9283
  27   0.0000       0.084381         2.2961
  28   0.0000       0.087496         2.3809
  29   0.0000       0.102182         2.7805

                 SPIN DOWN ORBITALS
  NO   OCC          E(Eh)            E(eV)
   0   1.0000     -10.171456      -276.7794
   1   1.0000     -10.171269      -276.7743
   2   1.0000     -10.169909      -276.7373
   3   1.0000     -10.169806      -276.7345
   4   1.0000     -10.165909      -276.6285
   5   1.0000     -10.165821      -276.6261
   6   1.0000      -0.793492       -21.5920
   7   1.0000      -0.753096       -20.4928
   8   1.0000      -0.696340       -18.9484
   9   1.0000      -0.624487       -16.9931
  10   1.0000      -0.585646       -15.9362
  11   1.0000      -0.551770       -15.0144
  12   1.0000      -0.463229       -12.6051
  13   1.0000      -0.450362       -12.2550
  14   1.0000      -0.432588       -11.7713
  15   1.0000      -0.409630       -11.1466
  16   1.0000      -0.404967       -11.0197
  17   1.0000      -0.385888       -10.5005
  18   1.0000      -0.359626        -9.7859
  19   1.0000      -0.356087        -9.6896
  20   1.0000      -0.343488        -9.3468
  21   1.0000      -0.328291        -8.9333
  22   1.0000      -0.318323        -8.6620
  23   1.0000      -0.313759        -8.5378
  24   1.0000      -0.307429        -8.3656
  25   0.0000       0.059917         1.6304
  26   0.0000       0.070863         1.9283
  27   0.0000       0.084381         2.2961
  28   0.0000       0.087496         2.3809
  29   0.0000       0.102182         2.7805

LOEWDIN ATOMIC CHARGES AND SPIN POPULATIONS
-------------------------------------------
   0 C :   -0.317040    0.000000
   1 C :   -0.221011    0.000000
   2 C :   -0.210212    0.000000
   3 C :   -0.210318    0.000000
   4 C :   -0.220711    0.000000
   5 C :   -0.317607    0.000000
   6 H :    0.108601    0.000000
   7 H :    0.107878    0.000000
   8 H :    0.110315    0.000000
   9 H :    0.106146    0.000000
  10 H :    0.105486    0.000000
  11 H :    0.104303    0.000000
  12 H :    0.105433    0.000000
  13 H :    0.105591    0.000000
  14 H :    0.104228    0.000000
  15 H :    0.105399    0.000000
  16 H :    0.106390    0.000000
  17 H :    0.108685    0.000000
  18 H :    0.107933    0.000000
  19 H :    0.110512    0.000000

  Mayer bond orders larger than 0.100000
B(  0-C ,  1-C ) :   1.1348 B(  0-C ,  6-H ) :   0.9600 B(  0-C ,  7-H ) :   0.9595
B(  0-C ,  8-H ) :   0.9598 B(  1-C ,  2-C ) :   1.1099 B(  1-C ,  9-H ) :   0.9320
B(  1-C , 10-H ) :   0.9368 B(  2-C ,  3-C ) :   1.1136 B(  2-C , 11-H ) :   0.9298
B(  2-C , 12-H ) :   0.9318 B(  3-C ,  4-C ) :   1.1140 B(  3-C , 13-H ) :   0.9310
B(  3-C , 14-H ) :   0.9288 B(  4-C ,  5-C ) :   1.1339 B(  4-C , 15-H ) :   0.9368
B(  4-C , 16-H ) :   0.9310 B(  5-C , 17-H ) :   0.9604 B(  5-C , 18-H ) :   0.9596
B(  5-C , 19-H ) :   0.9598

Dispersion correction           -0.024524872
FINAL SINGLE POINT ENERGY      -236.723217574409

DIPOLE MOMENT
-------------
                                X             Y             Z
Electronic contribution:     -0.01221      -0.26720      -0.34645
Nuclear contribution   :      0.01282       0.27820       0.36005
                        -----------------------------------------
Total Dipole Moment    :      0.00061       0.01101       0.01361
                        -----------------------------------------
Magnitude (a.u.)       :      0.01751
Magnitude (Debye)      :      0.04451

Rotational constants in cm-1:     0.337473     0.043060     0.040859
Rotational constants in MHz : 10117.172237  1290.905876  1224.909113

                             ****ORCA TERMINATED NORMALLY****
TOTAL RUN TIME: 0 days 1 hours 44 minutes 47 seconds 68 msec
