                         Program Version 4.2.1 -  RELEASE  -
|  1> ! UKS B3LYP def2-SV(P) def2/J D3BJ Opt
|  2> %scf Convergence VeryTight
|  3> SmearTemp 2000
|  4> maxiter 500
|  5> end
|  6> *xyz 0 1
|  7> C 4.979583 0.201329 -0.812473
|  8> C 4.161316 -0.219287 0.40327
|  9> C 2.727402 0.17889 0.186034
| 10> C 1.814315 -1.026488 0.000172
| 11> C 0.536519 -0.63629 -0.683362
| 12> C -0.666502 -0.668745 0.239154
| 13> C -1.487598 0.54907 -0.076646
| 14> C -2.800774 0.607633 0.640058
| 15> C -3.932191 0.010469 -0.190565
| 16> C -5.237969 0.439882 0.464872
| 17> H 4.633952 -0.313989 -1.724247
| 18> H 4.932461 1.313903 -0.900199
| 19> H 6.05434 -0.027675 -0.608181
| 20> H 4.55204 0.407374 1.244645
| 21> H 4.292633 -1.303297 0.597228
| 22> H 2.622712 0.813651 -0.729693
| 23> H 2.332645 0.812021 1.020066
| 24> H 2.354937 -1.712016 -0.700701
| 25> H 1.641831 -1.54948 0.974761
| 26> H 0.697827 0.383698 -1.11593
| 27> H 0.28511 -1.307013 -1.542413
| 28> H -0.369781 -0.598979 1.312239
| 29> H -1.275217 -1.597476 0.102594
| 30> H -0.877017 1.434074 0.228134
| 31> H -1.676168 0.529664 -1.173147
| 32> H -3.064914 1.691511 0.74001
| 33> H -2.787348 0.187966 1.657963
| 34> H -3.898522 0.50655 -1.17181
| 35> H -3.848289 -1.092804 -0.239204
| 36> H -5.580208 -0.299417 1.207745
| 37> H -6.031489 0.615927 -0.301615
| 38> H -5.085636 1.436507 0.95124
| 39> *
| 40>
| 41>                          ****END OF INPUT****
 Total Charge           Charge          ....    0
 Multiplicity           Mult            ....    1
 Number of Electrons    NEL             ....   82
Dispersion correction           -0.045098224
FINAL SINGLE POINT ENERGY      -393.703486380350
Dispersion correction            ... done
Dispersion correction           -0.043851448
FINAL SINGLE POINT ENERGY      -393.723003816476
Dispersion correction            ... done
Dispersion correction           -0.043557725
FINAL SINGLE POINT ENERGY      -393.729763884387
Dispersion correction            ... done
FINAL SINGLE POINT ENERGY      -393.733243784074
FINAL SINGLE POINT ENERGY      -393.735380749947
FINAL SINGLE POINT ENERGY      -393.737123731827
FINAL SINGLE POINT ENERGY      -393.738725053436
FINAL SINGLE POINT ENERGY      -393.740242382995
FINAL SINGLE POINT ENERGY      -393.741654114904
FINAL SINGLE POINT ENERGY      -393.742931147529
FINAL SINGLE POINT ENERGY      -393.746675750048
FINAL SINGLE POINT ENERGY      -393.747225975819
FINAL SINGLE POINT ENERGY      -393.747616451598
FINAL SINGLE POINT ENERGY      -393.747869453662
FINAL SINGLE POINT ENERGY      -393.747998936030
FINAL SINGLE POINT ENERGY      -393.748028575408
FINAL SINGLE POINT ENERGY      -393.748048297640
Dispersion correction            ... done
Dispersion correction           -0.044674313
FINAL SINGLE POINT ENERGY      -393.748057366788
Dispersion correction            ... done
Dispersion correction           -0.044668733
FINAL SINGLE POINT ENERGY      -393.748060275725
Dispersion correction            ... done
                    ***********************HURRAY********************

CARTESIAN COORDINATES (ANGSTROEM)
---------------------------------
  C      4.948176   -0.689707   -0.148924
  C      3.779188   -0.741557    0.839459
  C      2.541903    0.060815    0.411144
  C      1.859162   -0.455437   -0.861283
  C      0.625631    0.347448   -1.295476
  C     -0.560426    0.288901   -0.326144
  C     -1.810152    0.990323   -0.871232
  C     -3.002809    1.026601    0.093183
  C     -3.580300   -0.348040    0.451347
  C     -4.831890   -0.261927    1.328061
  H      4.697000   -1.163706   -1.114372
  H      5.244113    0.355230   -0.358989
  H      5.833635   -1.213667    0.253818
  H      4.121881   -0.361678    1.820238
  H      3.486125   -1.796416    1.008758
  H      2.828061    1.121721    0.261843
  H      1.815843    0.055789    1.245461
  H      2.586964   -0.452622   -1.693904
  H      1.570905   -1.515497   -0.711676
  H      0.915008    1.405262   -1.455676
  H      0.291382   -0.026540   -2.282170
  H     -0.286059    0.750503    0.641560
  H     -0.788112   -0.771534   -0.106184
  H     -1.541807    2.028402   -1.146254
  H     -2.119921    0.497449   -1.814373
  H     -3.806073    1.642084   -0.356958
  H     -2.706356    1.549607    1.024723
  H     -3.817872   -0.894499   -0.482898
  H     -2.813671   -0.952501    0.971084
  H     -4.616744    0.256661    2.281003
  H     -5.224677   -1.264684    1.574321
  H     -5.638109    0.300378    0.820509

 Multiplicity           Mult            ....    1
 Number of Electrons    NEL             ....   82
 Basis Dimension        Dim             ....  184

ORBITAL ENERGIES
----------------
                 SPIN UP ORBITALS
  NO   OCC          E(Eh)            E(eV)
   0   1.0000     -10.171650      -276.7847
   1   1.0000     -10.171299      -276.7751
   2   1.0000     -10.169674      -276.7309
   3   1.0000     -10.169419      -276.7240
   4   1.0000     -10.169294      -276.7206
   5   1.0000     -10.169131      -276.7161
   6   1.0000     -10.169046      -276.7138
   7   1.0000     -10.168336      -276.6945
   8   1.0000     -10.165484      -276.6169
   9   1.0000     -10.164843      -276.5994
  10   1.0000      -0.801321       -21.8051
  11   1.0000      -0.784215       -21.3396
  12   1.0000      -0.756173       -20.5765
  13   1.0000      -0.720714       -19.6116
  14   1.0000      -0.678612       -18.4660
  15   1.0000      -0.641152       -17.4466
  16   1.0000      -0.600850       -16.3500
  17   1.0000      -0.578032       -15.7291
  18   1.0000      -0.555392       -15.1130
  19   1.0000      -0.546850       -14.8805
  20   1.0000      -0.467980       -12.7344
  21   1.0000      -0.456266       -12.4156
  22   1.0000      -0.449003       -12.2180
  23   1.0000      -0.444969       -12.1082
  24   1.0000      -0.426206       -11.5977
  25   1.0000      -0.418690       -11.3931
  26   1.0000      -0.407597       -11.0913
  27   1.0000      -0.394893       -10.7456
  28   1.0000      -0.384346       -10.4586
  29   1.0000      -0.376912       -10.2563
  30   1.0000      -0.362567        -9.8659
  31   1.0000      -0.354157        -9.6371
  32   1.0000      -0.348053        -9.4710
  33   1.0000      -0.337437        -9.1821
  34   1.0000      -0.329139        -8.9563
  35   1.0000      -0.327861        -8.9216
  36   1.0000      -0.318809        -8.6752
  37   1.0000      -0.315774        -8.5926
  38   1.0000      -0.308670        -8.3993
  39   1.0000      -0.303731        -8.2649
  40   1.0000      -0.301171        -8.1953
  41   0.0000       0.057859         1.5744
  42   0.0000       0.063273         1.7217
  43   0.0000       0.073155         1.9907
  44   0.0000       0.077410         2.1064
  45   0.0000       0.081459         2.2166

                 SPIN DOWN ORBITALS
  NO   OCC          E(Eh)            E(eV)
   0   1.0000     -10.171650      -276.7847
   1   1.0000     -10.171299      -276.7751
   2   1.0000     -10.169674      -276.7309
   3   1.0000     -10.169419      -276.7240
   4   1.0000     -10.169294      -276.7206
   5   1.0000     -10.169131      -276.7161
   6   1.0000     -10.169046      -276.7138
   7   1.0000     -10.168336      -276.6945
   8   1.0000     -10.165484      -276.6169
   9   1.0000     -10.164843      -276.5994
  10   1.0000      -0.801321       -21.8051
  11   1.0000      -0.784215       -21.3396
  12   1.0000      -0.756173       -20.5765
  13   1.0000      -0.720714       -19.6116
  14   1.0000      -0.678612       -18.4660
  15   1.0000      -0.641152       -17.4466
  16   1.0000      -0.600850       -16.3500
  17   1.0000      -0.578032       -15.7291
  18   1.0000      -0.555392       -15.1130
  19   1.0000      -0.546850       -14.8805
  20   1.0000      -0.467980       -12.7344
  21   1.0000      -0.456266       -12.4156
  22   1.0000      -0.449003       -12.2180
  23   1.0000      -0.444969       -12.1082
  24   1.0000      -0.426206       -11.5977
  25   1.0000      -0.418690       -11.3931
  26   1.0000      -0.407597       -11.0913
  27   1.0000      -0.394893       -10.7456
  28   1.0000      -0.384346       -10.4586
  29   1.0000      -0.376912       -10.2563
  30   1.0000      -0.362567        -9.8659
  31   1.0000      -0.354157        -9.6371
  32   1.0000      -0.348053        -9.4710
  33   1.0000      -0.337437        -9.1821
  34   1.0000      -0.329139        -8.9563
  35   1.0000      -0.327861        -8.9216
  36   1.0000      -0.318809        -8.6752
  37   1.0000      -0.315774        -8.5926
  38   1.0000      -0.308670        -8.3993
  39   1.0000      -0.303731        -8.2649
  40   1.0000      -0.301171        -8.1953
  41   0.0000       0.057859         1.5744
  42   0.0000       0.063273         1.7217
  43   0.0000       0.073155         1.9907
  44   0.0000       0.077410         2.1064
  45   0.0000       0.081459         2.2166

LOEWDIN ATOMIC CHARGES AND SPIN POPULATIONS
-------------------------------------------
   0 C :   -0.321738    0.000000
   1 C :   -0.215411    0.000000
   2 C :   -0.214290    0.000000
   3 C :   -0.212441    0.000000
   4 C :   -0.206229    0.000000
   5 C :   -0.215547    0.000000
   6 C :   -0.207518    0.000000
   7 C :   -0.210704    0.000000
   8 C :   -0.221242    0.000000
   9 C :   -0.317719    0.000000
  10 H :    0.109056    0.000000
  11 H :    0.108148    0.000000
  12 H :    0.111182    0.000000
  13 H :    0.106487    0.000000
  14 H :    0.105191    0.000000
  15 H :    0.103837    0.000000
  16 H :    0.107443    0.000000
  17 H :    0.107550    0.000000
  18 H :    0.104013    0.000000
  19 H :    0.104042    0.000000
  20 H :    0.105604    0.000000
  21 H :    0.105542    0.000000
  22 H :    0.105545    0.000000
  23 H :    0.106288    0.000000
  24 H :    0.103672    0.000000
  25 H :    0.106195    0.000000
  26 H :    0.103777    0.000000
  27 H :    0.105109    0.000000
  28 H :    0.107055    0.000000
  29 H :    0.108855    0.000000
  30 H :    0.110140    0.000000
  31 H :    0.108108    0.000000

  Mayer bond orders larger than 0.100000
B(  0-C ,  1-C ) :   1.1313 B(  0-C , 10-H ) :   0.9563 B(  0-C , 11-H ) :   0.9610
B(  0-C , 12-H ) :   0.9585 B(  1-C ,  2-C ) :   1.1089 B(  1-C , 13-H ) :   0.9366
B(  1-C , 14-H ) :   0.9328 B(  2-C ,  3-C ) :   1.1159 B(  2-C , 15-H ) :   0.9294
B(  2-C , 16-H ) :   0.9287 B(  3-C ,  4-C ) :   1.1122 B(  3-C , 17-H ) :   0.9274
B(  3-C , 18-H ) :   0.9249 B(  4-C ,  5-C ) :   1.1179 B(  4-C , 19-H ) :   0.9242
B(  4-C , 20-H ) :   0.9280 B(  5-C ,  6-C ) :   1.1178 B(  5-C , 21-H ) :   0.9242
B(  5-C , 22-H ) :   0.9258 B(  6-C ,  7-C ) :   1.1146 B(  6-C , 23-H ) :   0.9282
B(  6-C , 24-H ) :   0.9245 B(  7-C ,  8-C ) :   1.1146 B(  7-C , 25-H ) :   0.9313
B(  7-C , 26-H ) :   0.9263 B(  8-C ,  9-C ) :   1.1367 B(  8-C , 27-H ) :   0.9350
B(  8-C , 28-H ) :   0.9314 B(  9-C , 29-H ) :   0.9587 B(  9-C , 30-H ) :   0.9597
B(  9-C , 31-H ) :   0.9594

Dispersion correction           -0.044665890
FINAL SINGLE POINT ENERGY      -393.748061519777

DIPOLE MOMENT
-------------
                                X             Y             Z
Electronic contribution:     -0.06804       0.72040      -0.95507
Nuclear contribution   :      0.07987      -0.73540       0.96268
                        -----------------------------------------
Total Dipole Moment    :      0.01183      -0.01499       0.00761
                        -----------------------------------------
Magnitude (a.u.)       :      0.02056
Magnitude (Debye)      :      0.05226

Rotational constants in cm-1:     0.104997     0.011242     0.010642
Rotational constants in MHz :  3147.743295   337.025985   319.048075

                             ****ORCA TERMINATED NORMALLY****
TOTAL RUN TIME: 0 days 2 hours 10 minutes 20 seconds 688 msec
