                         Program Version 4.2.1 -  RELEASE  -
|  1> ! UKS B3LYP def2-SV(P) def2/J D3BJ Opt
|  2> %scf Convergence VeryTight
|  3> SmearTemp 2000
|  4> maxiter 500
|  5> end
|  6> *xyz 0 1
|  7> C -1.936927 1.005417 0.219228
|  8> C -1.295805 0.05986 -0.757569
|  9> C -0.727391 -1.175164 -0.123974
| 10> C 0.462594 -0.919945 0.753015
| 11> C 1.672798 -0.519441 -0.045098
| 12> C 1.907166 0.973554 -0.018327
| 13> H -2.455116 1.780163 -0.382024
| 14> H -2.677288 0.455369 0.822928
| 15> H -1.227365 1.503427 0.895304
| 16> H -2.109497 -0.287299 -1.444273
| 17> H -0.547537 0.552544 -1.396232
| 18> H -1.509653 -1.733032 0.414869
| 19> H -0.3679 -1.820634 -0.965318
| 20> H 0.690802 -1.875447 1.277704
| 21> H 0.200547 -0.19329 1.539384
| 22> H 1.52817 -0.863298 -1.094525
| 23> H 2.572024 -1.040392 0.357481
| 24> H 2.213712 1.340071 -1.024507
| 25> H 0.954442 1.492767 0.213315
| 26> H 2.652224 1.26477 0.758618
| 27> *
| 28>
| 29>                          ****END OF INPUT****
 Total Charge           Charge          ....    0
 Multiplicity           Mult            ....    1
 Number of Electrons    NEL             ....   50
Dispersion correction           -0.027147581
FINAL SINGLE POINT ENERGY      -236.706074225780
Dispersion correction            ... done
Dispersion correction           -0.026087551
FINAL SINGLE POINT ENERGY      -236.714731259843
Dispersion correction            ... done
Dispersion correction           -0.026278308
FINAL SINGLE POINT ENERGY      -236.716314914276
Dispersion correction            ... done
FINAL SINGLE POINT ENERGY      -236.717230839128
FINAL SINGLE POINT ENERGY      -236.717969450823
FINAL SINGLE POINT ENERGY      -236.718620612268
FINAL SINGLE POINT ENERGY      -236.719178197739
FINAL SINGLE POINT ENERGY      -236.719596441487
FINAL SINGLE POINT ENERGY      -236.719850155191
FINAL SINGLE POINT ENERGY      -236.719914805953
FINAL SINGLE POINT ENERGY      -236.719924388639
Dispersion correction            ... done
Dispersion correction           -0.026449010
FINAL SINGLE POINT ENERGY      -236.719935682698
Dispersion correction            ... done
Dispersion correction           -0.026450351
FINAL SINGLE POINT ENERGY      -236.719938533014
Dispersion correction            ... done
                    ***********************HURRAY********************

CARTESIAN COORDINATES (ANGSTROEM)
---------------------------------
  C     -1.866354    1.063638    0.280137
  C     -1.410571    0.035239   -0.757498
  C     -0.773048   -1.228572   -0.160284
  C      0.491149   -1.047985    0.696334
  C      1.732258   -0.492240   -0.028740
  C      1.833149    1.035061   -0.100922
  H     -2.383740    1.914505   -0.199069
  H     -2.567867    0.610437    1.006539
  H     -1.016809    1.474774    0.852743
  H     -2.284229   -0.275850   -1.361058
  H     -0.711546    0.508826   -1.472000
  H     -1.535852   -1.742353    0.458169
  H     -0.535365   -1.925626   -0.987442
  H      0.745685   -2.043095    1.105279
  H      0.268562   -0.416134    1.578101
  H      1.775822   -0.916819   -1.051182
  H      2.635447   -0.867769    0.487452
  H      2.782702    1.344599   -0.574917
  H      1.012357    1.487522   -0.681983
  H      1.808251    1.481842    0.910340

 Multiplicity           Mult            ....    1
 Number of Electrons    NEL             ....   50
 Basis Dimension        Dim             ....  112

ORBITAL ENERGIES
----------------
                 SPIN UP ORBITALS
  NO   OCC          E(Eh)            E(eV)
   0   1.0000     -10.171882      -276.7910
   1   1.0000     -10.171500      -276.7806
   2   1.0000     -10.170100      -276.7425
   3   1.0000     -10.169348      -276.7220
   4   1.0000     -10.165129      -276.6072
   5   1.0000     -10.165091      -276.6062
   6   1.0000      -0.792585       -21.5673
   7   1.0000      -0.748781       -20.3754
   8   1.0000      -0.696178       -18.9440
   9   1.0000      -0.636072       -17.3084
  10   1.0000      -0.584556       -15.9066
  11   1.0000      -0.539876       -14.6908
  12   1.0000      -0.467377       -12.7180
  13   1.0000      -0.452747       -12.3199
  14   1.0000      -0.425204       -11.5704
  15   1.0000      -0.417694       -11.3660
  16   1.0000      -0.395801       -10.7703
  17   1.0000      -0.383380       -10.4323
  18   1.0000      -0.378044       -10.2871
  19   1.0000      -0.346295        -9.4232
  20   1.0000      -0.341659        -9.2970
  21   1.0000      -0.338108        -9.2004
  22   1.0000      -0.313836        -8.5399
  23   1.0000      -0.308102        -8.3839
  24   1.0000      -0.304100        -8.2750
  25   0.0000       0.052055         1.4165
  26   0.0000       0.079459         2.1622
  27   0.0000       0.084151         2.2899
  28   0.0000       0.085516         2.3270
  29   0.0000       0.117601         3.2001

                 SPIN DOWN ORBITALS
  NO   OCC          E(Eh)            E(eV)
   0   1.0000     -10.171882      -276.7910
   1   1.0000     -10.171500      -276.7806
   2   1.0000     -10.170100      -276.7425
   3   1.0000     -10.169348      -276.7220
   4   1.0000     -10.165129      -276.6072
   5   1.0000     -10.165091      -276.6062
   6   1.0000      -0.792585       -21.5673
   7   1.0000      -0.748781       -20.3754
   8   1.0000      -0.696178       -18.9440
   9   1.0000      -0.636072       -17.3084
  10   1.0000      -0.584556       -15.9066
  11   1.0000      -0.539876       -14.6908
  12   1.0000      -0.467377       -12.7180
  13   1.0000      -0.452747       -12.3199
  14   1.0000      -0.425204       -11.5704
  15   1.0000      -0.417694       -11.3660
  16   1.0000      -0.395801       -10.7703
  17   1.0000      -0.383380       -10.4323
  18   1.0000      -0.378044       -10.2871
  19   1.0000      -0.346295        -9.4232
  20   1.0000      -0.341659        -9.2970
  21   1.0000      -0.338108        -9.2004
  22   1.0000      -0.313836        -8.5399
  23   1.0000      -0.308102        -8.3839
  24   1.0000      -0.304100        -8.2750
  25   0.0000       0.052055         1.4165
  26   0.0000       0.079459         2.1622
  27   0.0000       0.084151         2.2899
  28   0.0000       0.085516         2.3270
  29   0.0000       0.117601         3.2001

LOEWDIN ATOMIC CHARGES AND SPIN POPULATIONS
-------------------------------------------
   0 C :   -0.323362    0.000000
   1 C :   -0.221259    0.000000
   2 C :   -0.211348    0.000000
   3 C :   -0.213541    0.000000
   4 C :   -0.216647    0.000000
   5 C :   -0.321775    0.000000
   6 H :    0.111719    0.000000
   7 H :    0.109163    0.000000
   8 H :    0.108377    0.000000
   9 H :    0.108103    0.000000
  10 H :    0.104502    0.000000
  11 H :    0.106009    0.000000
  12 H :    0.105937    0.000000
  13 H :    0.109447    0.000000
  14 H :    0.104611    0.000000
  15 H :    0.104806    0.000000
  16 H :    0.107776    0.000000
  17 H :    0.110379    0.000000
  18 H :    0.109427    0.000000
  19 H :    0.107676    0.000000

  Mayer bond orders larger than 0.100000
B(  0-C ,  1-C ) :   1.1255 B(  0-C ,  6-H ) :   0.9585 B(  0-C ,  7-H ) :   0.9606
B(  0-C ,  8-H ) :   0.9537 B(  1-C ,  2-C ) :   1.1156 B(  1-C ,  9-H ) :   0.9309
B(  1-C , 10-H ) :   0.9301 B(  2-C ,  3-C ) :   1.1197 B(  2-C , 11-H ) :   0.9308
B(  2-C , 12-H ) :   0.9291 B(  3-C ,  4-C ) :   1.0892 B(  3-C , 13-H ) :   0.9294
B(  3-C , 14-H ) :   0.9325 B(  4-C ,  5-C ) :   1.1402 B(  4-C , 15-H ) :   0.9373
B(  4-C , 16-H ) :   0.9381 B(  5-C , 17-H ) :   0.9567 B(  5-C , 18-H ) :   0.9507
B(  5-C , 19-H ) :   0.9563

Dispersion correction           -0.026448499
FINAL SINGLE POINT ENERGY      -236.719942699900

DIPOLE MOMENT
-------------
                                X             Y             Z
Electronic contribution:      0.03353      -1.68143      -0.19522
Nuclear contribution   :     -0.01721       1.66025       0.18561
                        -----------------------------------------
Total Dipole Moment    :      0.01632      -0.02117      -0.00961
                        -----------------------------------------
Magnitude (a.u.)       :      0.02841
Magnitude (Debye)      :      0.07221

Rotational constants in cm-1:     0.149956     0.074872     0.059407
Rotational constants in MHz :  4495.566218  2244.599819  1780.966898

                             ****ORCA TERMINATED NORMALLY****
TOTAL RUN TIME: 0 days 1 hours 18 minutes 2 seconds 857 msec
