                         Program Version 4.2.1 -  RELEASE  -
|  1> ! UKS B3LYP def2-SV(P) def2/J D3BJ Opt
|  2> %scf Convergence VeryTight
|  3> SmearTemp 2000
|  4> maxiter 500
|  5> end
|  6> *xyz 0 1
|  7> C -2.890746 0.159205 0.703902
|  8> C -1.696904 -0.198903 -0.139813
|  9> C -0.453626 0.440486 0.446086
| 10> C 0.595706 0.422875 -0.630032
| 11> C 1.565464 -0.718612 -0.50064
| 12> C 2.898669 -0.143204 -0.038607
| 13> H -3.464535 0.986465 0.257642
| 14> H -2.536528 0.499587 1.698733
| 15> H -3.496564 -0.775203 0.797601
| 16> H -1.866882 0.204315 -1.155587
| 17> H -1.526998 -1.282493 -0.200693
| 18> H -0.059396 -0.173947 1.294265
| 19> H -0.742944 1.460445 0.7636
| 20> H 1.106673 1.416744 -0.600426
| 21> H 0.108529 0.377077 -1.637025
| 22> H 1.658647 -1.249014 -1.459398
| 23> H 1.266498 -1.46616 0.254504
| 24> H 2.625282 0.639233 0.714072
| 25> H 3.360627 0.310718 -0.939795
| 26> H 3.549027 -0.909614 0.422445
| 27> *
| 28>
| 29>                          ****END OF INPUT****
 Total Charge           Charge          ....    0
 Multiplicity           Mult            ....    1
 Number of Electrons    NEL             ....   50
Dispersion correction           -0.025346973
FINAL SINGLE POINT ENERGY      -236.688506699806
Dispersion correction            ... done
Dispersion correction           -0.024434657
FINAL SINGLE POINT ENERGY      -236.705416345507
Dispersion correction            ... done
Dispersion correction           -0.024267405
FINAL SINGLE POINT ENERGY      -236.709549462635
Dispersion correction            ... done
FINAL SINGLE POINT ENERGY      -236.711846392497
FINAL SINGLE POINT ENERGY      -236.713496940172
FINAL SINGLE POINT ENERGY      -236.714950546964
FINAL SINGLE POINT ENERGY      -236.716333182510
FINAL SINGLE POINT ENERGY      -236.717598260729
FINAL SINGLE POINT ENERGY      -236.718701787154
FINAL SINGLE POINT ENERGY      -236.719671502125
FINAL SINGLE POINT ENERGY      -236.721794358414
FINAL SINGLE POINT ENERGY      -236.722202316179
FINAL SINGLE POINT ENERGY      -236.722507021585
FINAL SINGLE POINT ENERGY      -236.722747048638
FINAL SINGLE POINT ENERGY      -236.722879768209
FINAL SINGLE POINT ENERGY      -236.722929603112
FINAL SINGLE POINT ENERGY      -236.722978629197
Dispersion correction            ... done
Dispersion correction           -0.025480148
FINAL SINGLE POINT ENERGY      -236.722987444746
Dispersion correction            ... done
Dispersion correction           -0.025471853
FINAL SINGLE POINT ENERGY      -236.722990283758
Dispersion correction            ... done
                    ***********************HURRAY********************

CARTESIAN COORDINATES (ANGSTROEM)
---------------------------------
  C     -2.554811    0.009856    1.093282
  C     -1.421054   -0.295585    0.112576
  C     -0.450683    0.877090   -0.067231
  C      0.635977    0.653073   -1.128954
  C      1.551567   -0.559994   -0.901981
  C      2.315486   -0.532990    0.424473
  H     -3.159838    0.870712    0.751350
  H     -2.158336    0.262481    2.094306
  H     -3.235081   -0.853342    1.210450
  H     -1.845620   -0.570363   -0.873145
  H     -0.869263   -1.187534    0.464156
  H      0.017083    1.113698    0.907991
  H     -1.029498    1.778991   -0.345425
  H      1.262680    1.564334   -1.190716
  H      0.150792    0.548227   -2.118841
  H      2.276084   -0.609638   -1.736558
  H      0.958429   -1.492085   -0.964836
  H      1.634573   -0.598147    1.292618
  H      2.899556    0.401096    0.530406
  H      3.021955   -1.379883    0.496914

 Multiplicity           Mult            ....    1
 Number of Electrons    NEL             ....   50
 Basis Dimension        Dim             ....  112

ORBITAL ENERGIES
----------------
                 SPIN UP ORBITALS
  NO   OCC          E(Eh)            E(eV)
   0   1.0000     -10.171483      -276.7801
   1   1.0000     -10.171425      -276.7785
   2   1.0000     -10.169938      -276.7381
   3   1.0000     -10.169030      -276.7134
   4   1.0000     -10.166208      -276.6366
   5   1.0000     -10.165900      -276.6282
   6   1.0000      -0.794008       -21.6061
   7   1.0000      -0.751081       -20.4379
   8   1.0000      -0.694297       -18.8928
   9   1.0000      -0.632490       -17.2109
  10   1.0000      -0.587116       -15.9762
  11   1.0000      -0.540695       -14.7131
  12   1.0000      -0.467761       -12.7284
  13   1.0000      -0.452674       -12.3179
  14   1.0000      -0.427157       -11.6235
  15   1.0000      -0.418757       -11.3949
  16   1.0000      -0.397487       -10.8162
  17   1.0000      -0.380735       -10.3603
  18   1.0000      -0.373781       -10.1711
  19   1.0000      -0.350101        -9.5267
  20   1.0000      -0.342046        -9.3076
  21   1.0000      -0.332855        -9.0575
  22   1.0000      -0.314011        -8.5447
  23   1.0000      -0.312509        -8.5038
  24   1.0000      -0.307162        -8.3583
  25   0.0000       0.052475         1.4279
  26   0.0000       0.076048         2.0694
  27   0.0000       0.084523         2.3000
  28   0.0000       0.086520         2.3543
  29   0.0000       0.116008         3.1567

                 SPIN DOWN ORBITALS
  NO   OCC          E(Eh)            E(eV)
   0   1.0000     -10.171483      -276.7801
   1   1.0000     -10.171425      -276.7785
   2   1.0000     -10.169938      -276.7381
   3   1.0000     -10.169030      -276.7134
   4   1.0000     -10.166208      -276.6366
   5   1.0000     -10.165900      -276.6282
   6   1.0000      -0.794008       -21.6061
   7   1.0000      -0.751081       -20.4379
   8   1.0000      -0.694297       -18.8928
   9   1.0000      -0.632490       -17.2109
  10   1.0000      -0.587116       -15.9762
  11   1.0000      -0.540695       -14.7131
  12   1.0000      -0.467761       -12.7284
  13   1.0000      -0.452674       -12.3179
  14   1.0000      -0.427157       -11.6235
  15   1.0000      -0.418757       -11.3949
  16   1.0000      -0.397487       -10.8162
  17   1.0000      -0.380735       -10.3603
  18   1.0000      -0.373781       -10.1711
  19   1.0000      -0.350101        -9.5267
  20   1.0000      -0.342046        -9.3076
  21   1.0000      -0.332855        -9.0575
  22   1.0000      -0.314011        -8.5447
  23   1.0000      -0.312509        -8.5038
  24   1.0000      -0.307162        -8.3583
  25   0.0000       0.052475         1.4279
  26   0.0000       0.076048         2.0694
  27   0.0000       0.084523         2.3000
  28   0.0000       0.086520         2.3543
  29   0.0000       0.116008         3.1567

LOEWDIN ATOMIC CHARGES AND SPIN POPULATIONS
-------------------------------------------
   0 C :   -0.317912    0.000000
   1 C :   -0.219997    0.000000
   2 C :   -0.213808    0.000000
   3 C :   -0.209730    0.000000
   4 C :   -0.220901    0.000000
   5 C :   -0.323008    0.000000
   6 H :    0.108144    0.000000
   7 H :    0.108628    0.000000
   8 H :    0.110676    0.000000
   9 H :    0.105078    0.000000
  10 H :    0.106449    0.000000
  11 H :    0.104314    0.000000
  12 H :    0.106790    0.000000
  13 H :    0.105668    0.000000
  14 H :    0.105615    0.000000
  15 H :    0.108511    0.000000
  16 H :    0.105592    0.000000
  17 H :    0.108745    0.000000
  18 H :    0.109119    0.000000
  19 H :    0.112027    0.000000

  Mayer bond orders larger than 0.100000
B(  0-C ,  1-C ) :   1.1332 B(  0-C ,  6-H ) :   0.9601 B(  0-C ,  7-H ) :   0.9599
B(  0-C ,  8-H ) :   0.9604 B(  1-C ,  2-C ) :   1.1143 B(  1-C ,  9-H ) :   0.9357
B(  1-C , 10-H ) :   0.9286 B(  2-C ,  3-C ) :   1.1119 B(  2-C , 11-H ) :   0.9265
B(  2-C , 12-H ) :   0.9311 B(  3-C ,  4-C ) :   1.1094 B(  3-C , 13-H ) :   0.9325
B(  3-C , 14-H ) :   0.9296 B(  4-C ,  5-C ) :   1.1285 B(  4-C , 15-H ) :   0.9352
B(  4-C , 16-H ) :   0.9326 B(  5-C , 17-H ) :   0.9548 B(  5-C , 18-H ) :   0.9616
B(  5-C , 19-H ) :   0.9593

Dispersion correction           -0.025472579
FINAL SINGLE POINT ENERGY      -236.722990851504

DIPOLE MOMENT
-------------
                                X             Y             Z
Electronic contribution:      0.20976       0.37584      -1.28144
Nuclear contribution   :     -0.20001      -0.39607       1.26334
                        -----------------------------------------
Total Dipole Moment    :      0.00975      -0.02023      -0.01810
                        -----------------------------------------
Magnitude (a.u.)       :      0.02884
Magnitude (Debye)      :      0.07331

Rotational constants in cm-1:     0.206256     0.055005     0.050147
Rotational constants in MHz :  6183.393867  1649.019238  1503.374455

                             ****ORCA TERMINATED NORMALLY****
TOTAL RUN TIME: 0 days 1 hours 51 minutes 6 seconds 510 msec
