                         Program Version 4.2.1 -  RELEASE  -
|  1> ! UKS B3LYP def2-SV(P) def2/J D3BJ Opt
|  2> %scf Convergence VeryTight
|  3> SmearTemp 2000
|  4> maxiter 500
|  5> end
|  6> *xyz 0 1
|  7> C 4.147282 1.069465 -0.045593
|  8> C 3.786907 -0.402858 0.116183
|  9> C 2.781798 -0.768101 -0.943066
| 10> C 1.606868 -1.504725 -0.327974
| 11> C 0.434331 -0.599982 -0.082196
| 12> C -0.835251 -1.423727 -0.17882
| 13> C -1.974414 -0.487395 -0.563887
| 14> C -2.461376 0.178014 0.691492
| 15> C -3.81536 0.807131 0.553639
| 16> C -3.802507 2.106287 -0.204033
| 17> H 3.997235 1.41223 -1.082156
| 18> H 5.200097 1.271969 0.224309
| 19> H 3.519829 1.670499 0.652175
| 20> H 3.408534 -0.576422 1.148063
| 21> H 4.727436 -0.976938 0.036965
| 22> H 3.285435 -1.494025 -1.629384
| 23> H 2.443296 0.106254 -1.520692
| 24> H 1.29128 -2.359691 -0.974228
| 25> H 1.98236 -1.955041 0.612636
| 26> H 0.340536 0.215343 -0.814962
| 27> H 0.460445 -0.121665 0.922878
| 28> H -1.009219 -1.857728 0.830069
| 29> H -0.711756 -2.25028 -0.89652
| 30> H -1.566892 0.271795 -1.253305
| 31> H -2.761118 -1.09068 -1.066686
| 32> H -1.674674 0.863792 1.042821
| 33> H -2.557496 -0.621637 1.468908
| 34> H -4.468639 0.103362 0.01903
| 35> H -4.180819 1.031507 1.587546
| 36> H -3.699414 1.970539 -1.298306
| 37> H -4.81094 2.567662 -0.049146
| 38> H -3.083791 2.845045 0.212854
| 39> *
| 40>
| 41>                          ****END OF INPUT****
 Total Charge           Charge          ....    0
 Multiplicity           Mult            ....    1
 Number of Electrons    NEL             ....   82
Dispersion correction           -0.045930894
FINAL SINGLE POINT ENERGY      -393.699202713994
Dispersion correction            ... done
Dispersion correction           -0.044361824
FINAL SINGLE POINT ENERGY      -393.720780513657
Dispersion correction            ... done
Dispersion correction           -0.044014755
FINAL SINGLE POINT ENERGY      -393.727395169127
Dispersion correction            ... done
FINAL SINGLE POINT ENERGY      -393.730898749917
FINAL SINGLE POINT ENERGY      -393.733360614049
FINAL SINGLE POINT ENERGY      -393.735489604347
FINAL SINGLE POINT ENERGY      -393.737465380053
FINAL SINGLE POINT ENERGY      -393.739291893055
FINAL SINGLE POINT ENERGY      -393.740922034410
FINAL SINGLE POINT ENERGY      -393.742339868712
FINAL SINGLE POINT ENERGY      -393.746861424392
FINAL SINGLE POINT ENERGY      -393.747427232465
FINAL SINGLE POINT ENERGY      -393.747858402665
FINAL SINGLE POINT ENERGY      -393.748128161633
FINAL SINGLE POINT ENERGY      -393.748239449894
FINAL SINGLE POINT ENERGY      -393.748270308817
FINAL SINGLE POINT ENERGY      -393.748289134994
Dispersion correction            ... done
Dispersion correction           -0.044809328
FINAL SINGLE POINT ENERGY      -393.748311298248
Dispersion correction            ... done
Dispersion correction           -0.044807980
FINAL SINGLE POINT ENERGY      -393.748313231742
Dispersion correction            ... done
                    ***********************HURRAY********************

CARTESIAN COORDINATES (ANGSTROEM)
---------------------------------
  C      4.674039    0.861194    0.169479
  C      3.331363    0.146020    0.334297
  C      2.939023   -0.681386   -0.895389
  C      1.639334   -1.483078   -0.747372
  C      0.374905   -0.632380   -0.586110
  C     -0.907895   -1.467967   -0.518471
  C     -2.201488   -0.646341   -0.442386
  C     -2.338331    0.202872    0.827975
  C     -3.704132    0.884853    0.990847
  C     -4.026408    1.920635   -0.090368
  H      5.493011    0.138973   -0.006987
  H      4.934002    1.450927    1.067412
  H      4.652764    1.554547   -0.692533
  H      2.546736    0.894589    0.550566
  H      3.371507   -0.519486    1.219441
  H      3.763706   -1.382933   -1.127327
  H      2.855016   -0.009323   -1.773514
  H      1.518676   -2.131987   -1.636806
  H      1.730203   -2.168511    0.119409
  H      0.303307    0.077793   -1.435744
  H      0.458871   -0.011575    0.324682
  H     -0.853883   -2.145624    0.357601
  H     -0.953603   -2.124130   -1.409546
  H     -2.264678    0.002904   -1.336894
  H     -3.066051   -1.336131   -0.501849
  H     -1.547845    0.977957    0.849133
  H     -2.155592   -0.445746    1.707165
  H     -4.496493    0.110632    1.007913
  H     -3.737138    1.376288    1.981677
  H     -4.098134    1.461418   -1.092400
  H     -4.989930    2.422075    0.112604
  H     -3.244862    2.702919   -0.137888

 Multiplicity           Mult            ....    1
 Number of Electrons    NEL             ....   82
 Basis Dimension        Dim             ....  184

ORBITAL ENERGIES
----------------
                 SPIN UP ORBITALS
  NO   OCC          E(Eh)            E(eV)
   0   1.0000     -10.172147      -276.7982
   1   1.0000     -10.171558      -276.7822
   2   1.0000     -10.169964      -276.7388
   3   1.0000     -10.169952      -276.7385
   4   1.0000     -10.169857      -276.7359
   5   1.0000     -10.169621      -276.7295
   6   1.0000     -10.169543      -276.7273
   7   1.0000     -10.169061      -276.7142
   8   1.0000     -10.166145      -276.6349
   9   1.0000     -10.165383      -276.6141
  10   1.0000      -0.801805       -21.8182
  11   1.0000      -0.784564       -21.3491
  12   1.0000      -0.756507       -20.5856
  13   1.0000      -0.721062       -19.6211
  14   1.0000      -0.678698       -18.4683
  15   1.0000      -0.640838       -17.4381
  16   1.0000      -0.600869       -16.3505
  17   1.0000      -0.579885       -15.7795
  18   1.0000      -0.555232       -15.1086
  19   1.0000      -0.545796       -14.8519
  20   1.0000      -0.468018       -12.7354
  21   1.0000      -0.462614       -12.5884
  22   1.0000      -0.447557       -12.1786
  23   1.0000      -0.440631       -11.9902
  24   1.0000      -0.425782       -11.5861
  25   1.0000      -0.420929       -11.4541
  26   1.0000      -0.407929       -11.1003
  27   1.0000      -0.395149       -10.7526
  28   1.0000      -0.383190       -10.4271
  29   1.0000      -0.372937       -10.1481
  30   1.0000      -0.371182       -10.1004
  31   1.0000      -0.352595        -9.5946
  32   1.0000      -0.345952        -9.4138
  33   1.0000      -0.340248        -9.2586
  34   1.0000      -0.330655        -8.9976
  35   1.0000      -0.324475        -8.8294
  36   1.0000      -0.319323        -8.6892
  37   1.0000      -0.315500        -8.5852
  38   1.0000      -0.311269        -8.4701
  39   1.0000      -0.303157        -8.2493
  40   1.0000      -0.301788        -8.2121
  41   0.0000       0.056391         1.5345
  42   0.0000       0.063989         1.7412
  43   0.0000       0.071567         1.9474
  44   0.0000       0.076356         2.0778
  45   0.0000       0.080400         2.1878

                 SPIN DOWN ORBITALS
  NO   OCC          E(Eh)            E(eV)
   0   1.0000     -10.172147      -276.7982
   1   1.0000     -10.171558      -276.7822
   2   1.0000     -10.169964      -276.7388
   3   1.0000     -10.169952      -276.7385
   4   1.0000     -10.169857      -276.7359
   5   1.0000     -10.169621      -276.7295
   6   1.0000     -10.169543      -276.7273
   7   1.0000     -10.169061      -276.7142
   8   1.0000     -10.166145      -276.6349
   9   1.0000     -10.165383      -276.6141
  10   1.0000      -0.801805       -21.8182
  11   1.0000      -0.784564       -21.3491
  12   1.0000      -0.756507       -20.5856
  13   1.0000      -0.721062       -19.6211
  14   1.0000      -0.678698       -18.4683
  15   1.0000      -0.640838       -17.4381
  16   1.0000      -0.600869       -16.3505
  17   1.0000      -0.579885       -15.7795
  18   1.0000      -0.555232       -15.1086
  19   1.0000      -0.545796       -14.8519
  20   1.0000      -0.468018       -12.7354
  21   1.0000      -0.462614       -12.5884
  22   1.0000      -0.447557       -12.1786
  23   1.0000      -0.440631       -11.9902
  24   1.0000      -0.425782       -11.5861
  25   1.0000      -0.420929       -11.4541
  26   1.0000      -0.407929       -11.1003
  27   1.0000      -0.395149       -10.7526
  28   1.0000      -0.383190       -10.4271
  29   1.0000      -0.372937       -10.1481
  30   1.0000      -0.371182       -10.1004
  31   1.0000      -0.352595        -9.5946
  32   1.0000      -0.345952        -9.4138
  33   1.0000      -0.340248        -9.2586
  34   1.0000      -0.330655        -8.9976
  35   1.0000      -0.324475        -8.8294
  36   1.0000      -0.319323        -8.6892
  37   1.0000      -0.315500        -8.5852
  38   1.0000      -0.311269        -8.4701
  39   1.0000      -0.303157        -8.2493
  40   1.0000      -0.301788        -8.2121
  41   0.0000       0.056391         1.5345
  42   0.0000       0.063989         1.7412
  43   0.0000       0.071567         1.9474
  44   0.0000       0.076356         2.0778
  45   0.0000       0.080400         2.1878

LOEWDIN ATOMIC CHARGES AND SPIN POPULATIONS
-------------------------------------------
   0 C :   -0.318964    0.000000
   1 C :   -0.221122    0.000000
   2 C :   -0.210387    0.000000
   3 C :   -0.208020    0.000000
   4 C :   -0.216415    0.000000
   5 C :   -0.206858    0.000000
   6 C :   -0.211221    0.000000
   7 C :   -0.214937    0.000000
   8 C :   -0.216601    0.000000
   9 C :   -0.321353    0.000000
  10 H :    0.108471    0.000000
  11 H :    0.110514    0.000000
  12 H :    0.109167    0.000000
  13 H :    0.106819    0.000000
  14 H :    0.105500    0.000000
  15 H :    0.106084    0.000000
  16 H :    0.103883    0.000000
  17 H :    0.105649    0.000000
  18 H :    0.104704    0.000000
  19 H :    0.104477    0.000000
  20 H :    0.107253    0.000000
  21 H :    0.103972    0.000000
  22 H :    0.105444    0.000000
  23 H :    0.104904    0.000000
  24 H :    0.106416    0.000000
  25 H :    0.106084    0.000000
  26 H :    0.105951    0.000000
  27 H :    0.105563    0.000000
  28 H :    0.106454    0.000000
  29 H :    0.108772    0.000000
  30 H :    0.111040    0.000000
  31 H :    0.108755    0.000000

  Mayer bond orders larger than 0.100000
B(  0-C ,  1-C ) :   1.1319 B(  0-C , 10-H ) :   0.9595 B(  0-C , 11-H ) :   0.9600
B(  0-C , 12-H ) :   0.9603 B(  1-C ,  2-C ) :   1.1119 B(  1-C , 13-H ) :   0.9299
B(  1-C , 14-H ) :   0.9367 B(  2-C ,  3-C ) :   1.1100 B(  2-C , 15-H ) :   0.9308
B(  2-C , 16-H ) :   0.9285 B(  3-C ,  4-C ) :   1.1161 B(  3-C , 17-H ) :   0.9287
B(  3-C , 18-H ) :   0.9258 B(  4-C ,  5-C ) :   1.1143 B(  4-C , 19-H ) :   0.9297
B(  4-C , 20-H ) :   0.9193 B(  5-C ,  6-C ) :   1.1112 B(  5-C , 21-H ) :   0.9255
B(  5-C , 22-H ) :   0.9297 B(  6-C ,  7-C ) :   1.1121 B(  6-C , 23-H ) :   0.9227
B(  6-C , 24-H ) :   0.9299 B(  7-C ,  8-C ) :   1.1097 B(  7-C , 25-H ) :   0.9237
B(  7-C , 26-H ) :   0.9323 B(  8-C ,  9-C ) :   1.1285 B(  8-C , 27-H ) :   0.9338
B(  8-C , 28-H ) :   0.9370 B(  9-C , 29-H ) :   0.9573 B(  9-C , 30-H ) :   0.9587
B(  9-C , 31-H ) :   0.9604

Dispersion correction           -0.044806592
FINAL SINGLE POINT ENERGY      -393.748313990928

DIPOLE MOMENT
-------------
                                X             Y             Z
Electronic contribution:     -0.57614      -2.27149      -0.17667
Nuclear contribution   :      0.55650       2.26963       0.20006
                        -----------------------------------------
Total Dipole Moment    :     -0.01963      -0.00186       0.02339
                        -----------------------------------------
Magnitude (a.u.)       :      0.03059
Magnitude (Debye)      :      0.07777

Rotational constants in cm-1:     0.073769     0.012692     0.011515
Rotational constants in MHz :  2211.545857   380.492122   345.217681

                             ****ORCA TERMINATED NORMALLY****
TOTAL RUN TIME: 0 days 2 hours 19 minutes 23 seconds 891 msec
