                         Program Version 4.2.1 -  RELEASE  -
|  1> ! UKS B3LYP def2-SV(P) def2/J D3BJ Opt
|  2> %scf Convergence VeryTight
|  3> SmearTemp 2000
|  4> maxiter 500
|  5> end
|  6> *xyz 0 1
|  7> C 4.522128 -0.74289 0.780796
|  8> C 3.742167 0.252526 1.599196
|  9> C 2.636207 0.808115 0.747164
| 10> C 1.849842 -0.293942 0.052037
| 11> C 0.760721 0.366663 -0.780362
| 12> C -0.616657 -0.033891 -0.278555
| 13> C -1.513613 -0.098999 -1.5056
| 14> C -2.82462 0.569958 -1.106365
| 15> C -3.441809 -0.360731 -0.077164
| 16> C -4.882863 -0.042901 0.202342
| 17> H 3.878224 -1.64661 0.694901
| 18> H 5.413066 -1.036348 1.356234
| 19> H 4.752924 -0.270329 -0.18313
| 20> H 4.392165 1.080192 1.920682
| 21> H 3.27536 -0.197015 2.504452
| 22> H 1.888919 1.337142 1.390378
| 23> H 3.02802 1.473762 -0.045359
| 24> H 1.428987 -0.968541 0.816097
| 25> H 2.529216 -0.852125 -0.614935
| 26> H 0.806331 1.480389 -0.678957
| 27> H 0.900003 0.157129 -1.855841
| 28> H -1.007996 0.682155 0.482803
| 29> H -0.543139 -1.012869 0.240379
| 30> H -1.730604 -1.169785 -1.739276
| 31> H -1.068748 0.400327 -2.380653
| 32> H -2.570877 1.559107 -0.699817
| 33> H -3.502921 0.639849 -1.979074
| 34> H -2.856054 -0.358999 0.856212
| 35> H -3.427432 -1.380041 -0.541229
| 36> H -5.486157 -0.971417 0.362786
| 37> H -5.348603 0.480431 -0.642579
| 38> H -4.982186 0.587572 1.102437
| 39> *
| 40>
| 41>                          ****END OF INPUT****
 Total Charge           Charge          ....    0
 Multiplicity           Mult            ....    1
 Number of Electrons    NEL             ....   82
Dispersion correction           -0.046781192
FINAL SINGLE POINT ENERGY      -393.696016415944
Dispersion correction            ... done
Dispersion correction           -0.044861696
FINAL SINGLE POINT ENERGY      -393.721418016047
Dispersion correction            ... done
Dispersion correction           -0.044228742
FINAL SINGLE POINT ENERGY      -393.728840789098
Dispersion correction            ... done
FINAL SINGLE POINT ENERGY      -393.732241694667
FINAL SINGLE POINT ENERGY      -393.734305611127
FINAL SINGLE POINT ENERGY      -393.736008943295
FINAL SINGLE POINT ENERGY      -393.737591984301
FINAL SINGLE POINT ENERGY      -393.739059637470
FINAL SINGLE POINT ENERGY      -393.740357013272
FINAL SINGLE POINT ENERGY      -393.741456235511
FINAL SINGLE POINT ENERGY      -393.746552602223
FINAL SINGLE POINT ENERGY      -393.747110663208
FINAL SINGLE POINT ENERGY      -393.747546587939
FINAL SINGLE POINT ENERGY      -393.747882636381
FINAL SINGLE POINT ENERGY      -393.748022774245
FINAL SINGLE POINT ENERGY      -393.748060769096
FINAL SINGLE POINT ENERGY      -393.748086638242
Dispersion correction            ... done
Dispersion correction           -0.044649088
FINAL SINGLE POINT ENERGY      -393.748091887405
Dispersion correction            ... done
Dispersion correction           -0.044654271
FINAL SINGLE POINT ENERGY      -393.748095127980
Dispersion correction            ... done
                    ***********************HURRAY********************

CARTESIAN COORDINATES (ANGSTROEM)
---------------------------------
  C      4.873994   -0.207416    1.094096
  C      3.530408    0.133282    1.745393
  C      2.409182    0.485367    0.755868
  C      1.980582   -0.669665   -0.156927
  C      0.869989   -0.316723   -1.156156
  C     -0.481982    0.032885   -0.524865
  C     -1.584871    0.263246   -1.564897
  C     -2.936886    0.697683   -0.983224
  C     -3.615301   -0.343921   -0.085432
  C     -4.999210    0.094928    0.399632
  H      4.811556   -1.114121    0.465881
  H      5.651315   -0.389670    1.857904
  H      5.224518    0.621153    0.449590
  H      3.672753    0.987802    2.433907
  H      3.202025   -0.715296    2.378087
  H      1.535772    0.841320    1.332453
  H      2.732228    1.341113    0.128770
  H      1.649560   -1.521792    0.470569
  H      2.856213   -1.031928   -0.725984
  H      1.204737    0.526801   -1.792813
  H      0.726620   -1.174506   -1.841608
  H     -0.387181    0.941530    0.100800
  H     -0.775582   -0.783538    0.162627
  H     -1.723679   -0.662022   -2.159758
  H     -1.241170    1.035798   -2.280208
  H     -2.803305    1.637877   -0.411158
  H     -3.620991    0.944413   -1.818119
  H     -2.975437   -0.558775    0.790608
  H     -3.701776   -1.297975   -0.641655
  H     -5.466261   -0.672459    1.043862
  H     -5.680874    0.280455   -0.451511
  H     -4.936944    1.032035    0.984267

 Multiplicity           Mult            ....    1
 Number of Electrons    NEL             ....   82
 Basis Dimension        Dim             ....  184

ORBITAL ENERGIES
----------------
                 SPIN UP ORBITALS
  NO   OCC          E(Eh)            E(eV)
   0   1.0000     -10.172372      -276.8043
   1   1.0000     -10.171402      -276.7779
   2   1.0000     -10.170211      -276.7455
   3   1.0000     -10.169867      -276.7361
   4   1.0000     -10.169809      -276.7346
   5   1.0000     -10.169334      -276.7216
   6   1.0000     -10.169252      -276.7194
   7   1.0000     -10.168986      -276.7122
   8   1.0000     -10.166153      -276.6351
   9   1.0000     -10.165586      -276.6197
  10   1.0000      -0.801525       -21.8106
  11   1.0000      -0.784384       -21.3442
  12   1.0000      -0.756371       -20.5819
  13   1.0000      -0.720925       -19.6174
  14   1.0000      -0.678773       -18.4703
  15   1.0000      -0.641253       -17.4494
  16   1.0000      -0.600931       -16.3522
  17   1.0000      -0.578136       -15.7319
  18   1.0000      -0.555537       -15.1169
  19   1.0000      -0.547026       -14.8853
  20   1.0000      -0.468128       -12.7384
  21   1.0000      -0.456605       -12.4249
  22   1.0000      -0.449194       -12.2232
  23   1.0000      -0.445165       -12.1136
  24   1.0000      -0.426328       -11.6010
  25   1.0000      -0.418905       -11.3990
  26   1.0000      -0.407830       -11.0976
  27   1.0000      -0.394944       -10.7470
  28   1.0000      -0.384517       -10.4632
  29   1.0000      -0.377230       -10.2650
  30   1.0000      -0.362783        -9.8718
  31   1.0000      -0.354409        -9.6440
  32   1.0000      -0.348195        -9.4749
  33   1.0000      -0.337569        -9.1857
  34   1.0000      -0.329072        -8.9545
  35   1.0000      -0.328191        -8.9305
  36   1.0000      -0.319086        -8.6828
  37   1.0000      -0.316073        -8.6008
  38   1.0000      -0.308814        -8.4032
  39   1.0000      -0.304055        -8.2738
  40   1.0000      -0.301217        -8.1965
  41   0.0000       0.057985         1.5779
  42   0.0000       0.063691         1.7331
  43   0.0000       0.072815         1.9814
  44   0.0000       0.077009         2.0955
  45   0.0000       0.081427         2.2157

                 SPIN DOWN ORBITALS
  NO   OCC          E(Eh)            E(eV)
   0   1.0000     -10.172372      -276.8043
   1   1.0000     -10.171402      -276.7779
   2   1.0000     -10.170211      -276.7455
   3   1.0000     -10.169867      -276.7361
   4   1.0000     -10.169809      -276.7346
   5   1.0000     -10.169334      -276.7216
   6   1.0000     -10.169252      -276.7194
   7   1.0000     -10.168986      -276.7122
   8   1.0000     -10.166153      -276.6351
   9   1.0000     -10.165586      -276.6197
  10   1.0000      -0.801525       -21.8106
  11   1.0000      -0.784384       -21.3442
  12   1.0000      -0.756371       -20.5819
  13   1.0000      -0.720925       -19.6174
  14   1.0000      -0.678773       -18.4703
  15   1.0000      -0.641253       -17.4494
  16   1.0000      -0.600931       -16.3522
  17   1.0000      -0.578136       -15.7319
  18   1.0000      -0.555537       -15.1169
  19   1.0000      -0.547026       -14.8853
  20   1.0000      -0.468128       -12.7384
  21   1.0000      -0.456605       -12.4249
  22   1.0000      -0.449194       -12.2232
  23   1.0000      -0.445165       -12.1136
  24   1.0000      -0.426328       -11.6010
  25   1.0000      -0.418905       -11.3990
  26   1.0000      -0.407830       -11.0976
  27   1.0000      -0.394944       -10.7470
  28   1.0000      -0.384517       -10.4632
  29   1.0000      -0.377230       -10.2650
  30   1.0000      -0.362783        -9.8718
  31   1.0000      -0.354409        -9.6440
  32   1.0000      -0.348195        -9.4749
  33   1.0000      -0.337569        -9.1857
  34   1.0000      -0.329072        -8.9545
  35   1.0000      -0.328191        -8.9305
  36   1.0000      -0.319086        -8.6828
  37   1.0000      -0.316073        -8.6008
  38   1.0000      -0.308814        -8.4032
  39   1.0000      -0.304055        -8.2738
  40   1.0000      -0.301217        -8.1965
  41   0.0000       0.057985         1.5779
  42   0.0000       0.063691         1.7331
  43   0.0000       0.072815         1.9814
  44   0.0000       0.077009         2.0955
  45   0.0000       0.081427         2.2157

LOEWDIN ATOMIC CHARGES AND SPIN POPULATIONS
-------------------------------------------
   0 C :   -0.323843    0.000000
   1 C :   -0.216523    0.000000
   2 C :   -0.213464    0.000000
   3 C :   -0.211565    0.000000
   4 C :   -0.207405    0.000000
   5 C :   -0.216123    0.000000
   6 C :   -0.208919    0.000000
   7 C :   -0.210560    0.000000
   8 C :   -0.219710    0.000000
   9 C :   -0.320582    0.000000
  10 H :    0.109125    0.000000
  11 H :    0.112005    0.000000
  12 H :    0.108804    0.000000
  13 H :    0.107537    0.000000
  14 H :    0.105201    0.000000
  15 H :    0.107222    0.000000
  16 H :    0.103820    0.000000
  17 H :    0.103992    0.000000
  18 H :    0.107167    0.000000
  19 H :    0.104193    0.000000
  20 H :    0.106402    0.000000
  21 H :    0.105720    0.000000
  22 H :    0.105844    0.000000
  23 H :    0.104158    0.000000
  24 H :    0.106617    0.000000
  25 H :    0.103915    0.000000
  26 H :    0.106272    0.000000
  27 H :    0.106503    0.000000
  28 H :    0.105198    0.000000
  29 H :    0.110898    0.000000
  30 H :    0.108847    0.000000
  31 H :    0.109254    0.000000

  Mayer bond orders larger than 0.100000
B(  0-C ,  1-C ) :   1.1291 B(  0-C , 10-H ) :   0.9567 B(  0-C , 11-H ) :   0.9576
B(  0-C , 12-H ) :   0.9609 B(  1-C ,  2-C ) :   1.1106 B(  1-C , 13-H ) :   0.9368
B(  1-C , 14-H ) :   0.9336 B(  2-C ,  3-C ) :   1.1152 B(  2-C , 15-H ) :   0.9262
B(  2-C , 16-H ) :   0.9312 B(  3-C ,  4-C ) :   1.1135 B(  3-C , 17-H ) :   0.9261
B(  3-C , 18-H ) :   0.9253 B(  4-C ,  5-C ) :   1.1143 B(  4-C , 19-H ) :   0.9250
B(  4-C , 20-H ) :   0.9282 B(  5-C ,  6-C ) :   1.1178 B(  5-C , 21-H ) :   0.9250
B(  5-C , 22-H ) :   0.9259 B(  6-C ,  7-C ) :   1.1121 B(  6-C , 23-H ) :   0.9246
B(  6-C , 24-H ) :   0.9287 B(  7-C ,  8-C ) :   1.1148 B(  7-C , 25-H ) :   0.9273
B(  7-C , 26-H ) :   0.9302 B(  8-C ,  9-C ) :   1.1346 B(  8-C , 27-H ) :   0.9309
B(  8-C , 28-H ) :   0.9362 B(  9-C , 29-H ) :   0.9598 B(  9-C , 30-H ) :   0.9584
B(  9-C , 31-H ) :   0.9593

Dispersion correction           -0.044653730
FINAL SINGLE POINT ENERGY      -393.748096246334

DIPOLE MOMENT
-------------
                                X             Y             Z
Electronic contribution:      0.12554       0.07494      -1.19198
Nuclear contribution   :     -0.11634      -0.08320       1.20761
                        -----------------------------------------
Total Dipole Moment    :      0.00921      -0.00826       0.01562
                        -----------------------------------------
Magnitude (a.u.)       :      0.01993
Magnitude (Debye)      :      0.05065

Rotational constants in cm-1:     0.104978     0.011239     0.010641
Rotational constants in MHz :  3147.173506   336.943621   319.013303

                             ****ORCA TERMINATED NORMALLY****
TOTAL RUN TIME: 0 days 3 hours 2 minutes 50 seconds 832 msec
