                         Program Version 4.2.1 -  RELEASE  -
|  1> ! UKS B3LYP def2-SV(P) def2/J D3BJ Opt
|  2> %scf Convergence VeryTight
|  3> SmearTemp 2000
|  4> maxiter 500
|  5> end
|  6> *xyz 0 1
|  7> C 4.838956 -0.041791 -0.146837
|  8> C 3.831633 1.067931 -0.4127
|  9> C 2.484347 0.420645 -0.71383
| 10> C 1.649767 0.451144 0.561597
| 11> C 0.210456 0.240353 0.217457
| 12> C -0.243093 -1.182399 0.255116
| 13> C -1.694997 -1.180997 0.721183
| 14> C -2.545626 -0.478538 -0.313671
| 15> C -3.50796 0.502583 0.293112
| 16> C -4.955993 0.08002 0.130814
| 17> H 5.441185 -0.233398 -1.067541
| 18> H 5.472787 0.203162 0.721137
| 19> H 4.302528 -1.001227 0.060336
| 20> H 3.783883 1.698458 0.497009
| 21> H 4.175353 1.69636 -1.273333
| 22> H 1.92015 1.006538 -1.463619
| 23> H 2.648426 -0.630183 -1.020124
| 24> H 2.066391 -0.284837 1.26858
| 25> H 1.760241 1.496933 0.945856
| 26> H 0.05338 0.630801 -0.816335
| 27> H -0.402951 0.858348 0.914697
| 28> H 0.356047 -1.842116 0.899616
| 29> H -0.207809 -1.619215 -0.773339
| 30> H -2.073841 -2.199613 0.91981
| 31> H -1.692533 -0.649543 1.695483
| 32> H -3.073669 -1.272173 -0.882791
| 33> H -1.911612 0.088901 -1.036207
| 34> H -3.290702 0.66117 1.379866
| 35> H -3.433263 1.512119 -0.182316
| 36> H -5.517647 0.566874 0.967131
| 37> H -5.405384 0.463414 -0.811154
| 38> H -5.038449 -1.029724 0.218875
| 39> *
| 40>
| 41>                          ****END OF INPUT****
 Total Charge           Charge          ....    0
 Multiplicity           Mult            ....    1
 Number of Electrons    NEL             ....   82
Dispersion correction           -0.046518905
FINAL SINGLE POINT ENERGY      -393.693035044325
Dispersion correction            ... done
Dispersion correction           -0.044667371
FINAL SINGLE POINT ENERGY      -393.715019436801
Dispersion correction            ... done
Dispersion correction           -0.044180535
FINAL SINGLE POINT ENERGY      -393.721506969163
Dispersion correction            ... done
FINAL SINGLE POINT ENERGY      -393.724959848534
FINAL SINGLE POINT ENERGY      -393.727374836376
FINAL SINGLE POINT ENERGY      -393.729477872820
FINAL SINGLE POINT ENERGY      -393.731460648493
FINAL SINGLE POINT ENERGY      -393.733393954285
FINAL SINGLE POINT ENERGY      -393.735271292696
FINAL SINGLE POINT ENERGY      -393.737044132536
FINAL SINGLE POINT ENERGY      -393.745927721441
FINAL SINGLE POINT ENERGY      -393.746555431582
FINAL SINGLE POINT ENERGY      -393.746973049109
FINAL SINGLE POINT ENERGY      -393.747204273266
FINAL SINGLE POINT ENERGY      -393.747281429625
FINAL SINGLE POINT ENERGY      -393.747315833395
FINAL SINGLE POINT ENERGY      -393.747353943506
Dispersion correction            ... done
Dispersion correction           -0.045296376
FINAL SINGLE POINT ENERGY      -393.747364280913
Dispersion correction            ... done
Dispersion correction           -0.045292226
FINAL SINGLE POINT ENERGY      -393.747366429341
Dispersion correction            ... done
                    ***********************HURRAY********************

CARTESIAN COORDINATES (ANGSTROEM)
---------------------------------
  C      4.779713   -0.511195   -0.153966
  C      3.993288    0.553321   -0.923629
  C      2.469364    0.448048   -0.773103
  C      1.956022    0.682345    0.652473
  C      0.427042    0.737244    0.773859
  C     -0.280090   -0.586358    0.455529
  C     -1.786924   -0.592280    0.748760
  C     -2.608144    0.359962   -0.128463
  C     -4.115514    0.355412    0.165073
  C     -4.820138   -0.971729   -0.131999
  H      4.455761   -1.529343   -0.442765
  H      5.863080   -0.434203   -0.359895
  H      4.642974   -0.415908    0.938596
  H      4.321914    1.560356   -0.598418
  H      4.248216    0.482641   -1.998056
  H      1.991408    1.186217   -1.446375
  H      2.143070   -0.547305   -1.130900
  H      2.339255   -0.107252    1.326852
  H      2.378005    1.635740    1.026682
  H      0.044760    1.539188    0.113713
  H      0.162565    1.037803    1.806303
  H      0.199487   -1.390993    1.046135
  H     -0.121638   -0.851611   -0.607048
  H     -2.162289   -1.624397    0.619924
  H     -1.952583   -0.336911    1.815019
  H     -2.443351    0.102173   -1.194503
  H     -2.231730    1.392051   -0.002563
  H     -4.277833    0.628407    1.226297
  H     -4.592462    1.156031   -0.430808
  H     -5.910516   -0.888725    0.029443
  H     -4.659262   -1.279850   -1.182742
  H     -4.453448   -1.788878    0.514450

 Multiplicity           Mult            ....    1
 Number of Electrons    NEL             ....   82
 Basis Dimension        Dim             ....  184

ORBITAL ENERGIES
----------------
                 SPIN UP ORBITALS
  NO   OCC          E(Eh)            E(eV)
   0   1.0000     -10.171742      -276.7872
   1   1.0000     -10.171699      -276.7860
   2   1.0000     -10.169118      -276.7158
   3   1.0000     -10.169088      -276.7149
   4   1.0000     -10.169044      -276.7137
   5   1.0000     -10.168992      -276.7123
   6   1.0000     -10.168972      -276.7118
   7   1.0000     -10.168811      -276.7074
   8   1.0000     -10.165627      -276.6208
   9   1.0000     -10.165514      -276.6177
  10   1.0000      -0.801659       -21.8142
  11   1.0000      -0.784013       -21.3341
  12   1.0000      -0.755885       -20.5687
  13   1.0000      -0.719260       -19.5721
  14   1.0000      -0.675567       -18.3831
  15   1.0000      -0.646280       -17.5862
  16   1.0000      -0.604981       -16.4624
  17   1.0000      -0.576679       -15.6922
  18   1.0000      -0.556522       -15.1437
  19   1.0000      -0.539888       -14.6911
  20   1.0000      -0.466479       -12.6935
  21   1.0000      -0.459177       -12.4948
  22   1.0000      -0.447283       -12.1712
  23   1.0000      -0.436741       -11.8843
  24   1.0000      -0.436023       -11.8648
  25   1.0000      -0.420540       -11.4435
  26   1.0000      -0.404343       -11.0027
  27   1.0000      -0.397794       -10.8245
  28   1.0000      -0.381819       -10.3898
  29   1.0000      -0.378273       -10.2933
  30   1.0000      -0.365147        -9.9361
  31   1.0000      -0.354976        -9.6594
  32   1.0000      -0.346487        -9.4284
  33   1.0000      -0.338238        -9.2039
  34   1.0000      -0.332285        -9.0419
  35   1.0000      -0.323128        -8.7928
  36   1.0000      -0.320391        -8.7183
  37   1.0000      -0.315856        -8.5949
  38   1.0000      -0.305531        -8.3139
  39   1.0000      -0.303837        -8.2678
  40   1.0000      -0.300801        -8.1852
  41   0.0000       0.058213         1.5840
  42   0.0000       0.061559         1.6751
  43   0.0000       0.074841         2.0365
  44   0.0000       0.076274         2.0755
  45   0.0000       0.082384         2.2418

                 SPIN DOWN ORBITALS
  NO   OCC          E(Eh)            E(eV)
   0   1.0000     -10.171742      -276.7872
   1   1.0000     -10.171699      -276.7860
   2   1.0000     -10.169118      -276.7158
   3   1.0000     -10.169088      -276.7149
   4   1.0000     -10.169044      -276.7137
   5   1.0000     -10.168992      -276.7123
   6   1.0000     -10.168972      -276.7118
   7   1.0000     -10.168811      -276.7074
   8   1.0000     -10.165627      -276.6208
   9   1.0000     -10.165514      -276.6177
  10   1.0000      -0.801659       -21.8142
  11   1.0000      -0.784013       -21.3341
  12   1.0000      -0.755885       -20.5687
  13   1.0000      -0.719260       -19.5721
  14   1.0000      -0.675567       -18.3831
  15   1.0000      -0.646280       -17.5862
  16   1.0000      -0.604981       -16.4624
  17   1.0000      -0.576679       -15.6922
  18   1.0000      -0.556522       -15.1437
  19   1.0000      -0.539888       -14.6911
  20   1.0000      -0.466479       -12.6935
  21   1.0000      -0.459177       -12.4948
  22   1.0000      -0.447283       -12.1712
  23   1.0000      -0.436741       -11.8843
  24   1.0000      -0.436023       -11.8648
  25   1.0000      -0.420540       -11.4435
  26   1.0000      -0.404343       -11.0027
  27   1.0000      -0.397794       -10.8245
  28   1.0000      -0.381819       -10.3898
  29   1.0000      -0.378273       -10.2933
  30   1.0000      -0.365147        -9.9361
  31   1.0000      -0.354976        -9.6594
  32   1.0000      -0.346487        -9.4284
  33   1.0000      -0.338238        -9.2039
  34   1.0000      -0.332285        -9.0419
  35   1.0000      -0.323128        -8.7928
  36   1.0000      -0.320391        -8.7183
  37   1.0000      -0.315856        -8.5949
  38   1.0000      -0.305531        -8.3139
  39   1.0000      -0.303837        -8.2678
  40   1.0000      -0.300801        -8.1852
  41   0.0000       0.058213         1.5840
  42   0.0000       0.061559         1.6751
  43   0.0000       0.074841         2.0365
  44   0.0000       0.076274         2.0755
  45   0.0000       0.082384         2.2418

LOEWDIN ATOMIC CHARGES AND SPIN POPULATIONS
-------------------------------------------
   0 C :   -0.324354    0.000000
   1 C :   -0.214720    0.000000
   2 C :   -0.212264    0.000000
   3 C :   -0.210135    0.000000
   4 C :   -0.210794    0.000000
   5 C :   -0.211067    0.000000
   6 C :   -0.210377    0.000000
   7 C :   -0.213042    0.000000
   8 C :   -0.215899    0.000000
   9 C :   -0.324325    0.000000
  10 H :    0.108398    0.000000
  11 H :    0.111817    0.000000
  12 H :    0.110410    0.000000
  13 H :    0.103550    0.000000
  14 H :    0.106699    0.000000
  15 H :    0.105883    0.000000
  16 H :    0.104559    0.000000
  17 H :    0.105189    0.000000
  18 H :    0.104993    0.000000
  19 H :    0.104906    0.000000
  20 H :    0.105349    0.000000
  21 H :    0.106159    0.000000
  22 H :    0.105843    0.000000
  23 H :    0.106448    0.000000
  24 H :    0.103511    0.000000
  25 H :    0.103643    0.000000
  26 H :    0.106867    0.000000
  27 H :    0.105202    0.000000
  28 H :    0.107365    0.000000
  29 H :    0.112197    0.000000
  30 H :    0.108610    0.000000
  31 H :    0.109378    0.000000

  Mayer bond orders larger than 0.100000
B(  0-C ,  1-C ) :   1.1259 B(  0-C , 10-H ) :   0.9607 B(  0-C , 11-H ) :   0.9587
B(  0-C , 12-H ) :   0.9571 B(  1-C ,  2-C ) :   1.1114 B(  1-C , 13-H ) :   0.9337
B(  1-C , 14-H ) :   0.9378 B(  2-C ,  3-C ) :   1.1113 B(  2-C , 15-H ) :   0.9304
B(  2-C , 16-H ) :   0.9269 B(  3-C ,  4-C ) :   1.1170 B(  3-C , 17-H ) :   0.9225
B(  3-C , 18-H ) :   0.9303 B(  4-C ,  5-C ) :   1.1149 B(  4-C , 19-H ) :   0.9209
B(  4-C , 20-H ) :   0.9306 B(  5-C ,  6-C ) :   1.1127 B(  5-C , 21-H ) :   0.9291
B(  5-C , 22-H ) :   0.9226 B(  6-C ,  7-C ) :   1.1126 B(  6-C , 23-H ) :   0.9272
B(  6-C , 24-H ) :   0.9271 B(  7-C ,  8-C ) :   1.1099 B(  7-C , 25-H ) :   0.9307
B(  7-C , 26-H ) :   0.9279 B(  8-C ,  9-C ) :   1.1294 B(  8-C , 27-H ) :   0.9336
B(  8-C , 28-H ) :   0.9365 B(  9-C , 29-H ) :   0.9584 B(  9-C , 30-H ) :   0.9612
B(  9-C , 31-H ) :   0.9555

Dispersion correction           -0.045290210
FINAL SINGLE POINT ENERGY      -393.747367109079

DIPOLE MOMENT
-------------
                                X             Y             Z
Electronic contribution:      0.03197       1.22195       0.33916
Nuclear contribution   :     -0.03705      -1.20319      -0.34580
                        -----------------------------------------
Total Dipole Moment    :     -0.00508       0.01876      -0.00663
                        -----------------------------------------
Magnitude (a.u.)       :      0.02053
Magnitude (Debye)      :      0.05219

Rotational constants in cm-1:     0.133553     0.011015     0.010964
Rotational constants in MHz :  4003.823018   330.213350   328.694433

                             ****ORCA TERMINATED NORMALLY****
TOTAL RUN TIME: 0 days 2 hours 23 minutes 37 seconds 99 msec
