                         Program Version 4.2.1 -  RELEASE  -
|  1> ! UKS B3LYP def2-SV(P) def2/J D3BJ Opt
|  2> %scf Convergence VeryTight
|  3> SmearTemp 2000
|  4> maxiter 500
|  5> end
|  6> *xyz 0 2
|  7> C -0.044128 0.02008 -0.380368
|  8> C -1.443047 -0.029511 0.172956
|  9> C 0.738679 -1.246519 -0.124827
| 10> C 0.718642 1.242971 0.033497
| 11> H -0.163992 0.087142 -1.492734
| 12> H -1.507341 -0.345976 1.219528
| 13> H -1.8965 0.952185 -0.017688
| 14> H 1.598711 -1.290119 -0.840584
| 15> H 0.1194 -2.127687 -0.36519
| 16> H 1.123733 -1.250622 0.905975
| 17> H 0.002011 2.009751 0.420483
| 18> H 1.23108 1.718745 -0.839732
| 19> H 1.534468 1.034087 0.768642
| 20> *
| 21>
| 22>                          ****END OF INPUT****
 Total Charge           Charge          ....    0
 Multiplicity           Mult            ....    2
 Number of Electrons    NEL             ....   33
Dispersion correction           -0.014607480
FINAL SINGLE POINT ENERGY      -157.525692708291
Dispersion correction            ... done
Dispersion correction           -0.014381190
FINAL SINGLE POINT ENERGY      -157.535230156707
Dispersion correction            ... done
Dispersion correction           -0.014332085
FINAL SINGLE POINT ENERGY      -157.538848897911
Dispersion correction            ... done
FINAL SINGLE POINT ENERGY      -157.540547282921
FINAL SINGLE POINT ENERGY      -157.541696253476
FINAL SINGLE POINT ENERGY      -157.542698788690
FINAL SINGLE POINT ENERGY      -157.543579335490
FINAL SINGLE POINT ENERGY      -157.544264926426
FINAL SINGLE POINT ENERGY      -157.544714909666
FINAL SINGLE POINT ENERGY      -157.544914747832
FINAL SINGLE POINT ENERGY      -157.544947571847
FINAL SINGLE POINT ENERGY      -157.544991481023
Dispersion correction            ... done
Dispersion correction           -0.014380066
FINAL SINGLE POINT ENERGY      -157.545008027921
Dispersion correction            ... done
Dispersion correction           -0.014385291
FINAL SINGLE POINT ENERGY      -157.545012985277
Dispersion correction            ... done
                    ***********************HURRAY********************

CARTESIAN COORDINATES (ANGSTROEM)
---------------------------------
  C     -0.072244    0.074120   -0.392003
  C     -1.347521    0.041673    0.391501
  C      0.734611   -1.221017   -0.223984
  C      0.781673    1.309775   -0.021591
  H     -0.331531    0.181534   -1.466114
  H     -1.450198   -0.598629    1.276139
  H     -2.135158    0.780275    0.200022
  H      1.656443   -1.201239   -0.832513
  H      0.142430   -2.102721   -0.527806
  H      1.032091   -1.361855    0.832522
  H      0.213395    2.246588   -0.165209
  H      1.691582    1.361681   -0.648275
  H      1.096143    1.264342    1.037271

 Multiplicity           Mult            ....    2
 Number of Electrons    NEL             ....   33
 Basis Dimension        Dim             ....   74

ORBITAL ENERGIES
----------------
                 SPIN UP ORBITALS
  NO   OCC          E(Eh)            E(eV)
   0   1.0000     -10.187662      -277.2204
   1   1.0000     -10.179900      -277.0092
   2   1.0000     -10.170119      -276.7430
   3   1.0000     -10.167340      -276.6674
   4   1.0000      -0.793237       -21.5851
   5   1.0000      -0.671281       -18.2665
   6   1.0000      -0.661083       -17.9890
   7   1.0000      -0.549843       -14.9620
   8   1.0000      -0.461246       -12.5511
   9   1.0000      -0.432250       -11.7621
  10   1.0000      -0.423065       -11.5122
  11   1.0000      -0.386081       -10.5058
  12   1.0000      -0.376845       -10.2545
  13   1.0000      -0.345026        -9.3886
  14   1.0000      -0.339120        -9.2279
  15   1.0000      -0.328153        -8.9295
  16   1.0000      -0.201484        -5.4827
  17   0.0000       0.058819         1.6005
  18   0.0000       0.098203         2.6722
  19   0.0000       0.105943         2.8829
  20   0.0000       0.112742         3.0679
  21   0.0000       0.122793         3.3414

                 SPIN DOWN ORBITALS
  NO   OCC          E(Eh)            E(eV)
   0   1.0000     -10.188579      -277.2453
   1   1.0000     -10.168672      -276.7036
   2   1.0000     -10.167182      -276.6631
   3   1.0000     -10.165274      -276.6112
   4   1.0000      -0.785898       -21.3854
   5   1.0000      -0.669625       -18.2214
   6   1.0000      -0.637266       -17.3409
   7   1.0000      -0.541012       -14.7217
   8   1.0000      -0.456607       -12.4249
   9   1.0000      -0.429441       -11.6857
  10   1.0000      -0.416351       -11.3295
  11   1.0000      -0.383609       -10.4385
  12   1.0000      -0.373273       -10.1573
  13   1.0000      -0.338121        -9.2007
  14   1.0000      -0.334651        -9.1063
  15   1.0000      -0.325706        -8.8629
  16   0.0000      -0.044722        -1.2169
  17   0.0000       0.060446         1.6448
  18   0.0000       0.099557         2.7091
  19   0.0000       0.111531         3.0349
  20   0.0000       0.116697         3.1755

LOEWDIN ATOMIC CHARGES AND SPIN POPULATIONS
-------------------------------------------
   0 C :   -0.160839   -0.012783
   1 C :   -0.220970    0.978512
   2 C :   -0.307535    0.006477
   3 C :   -0.306504    0.048528
   4 H :    0.114298    0.022454
   5 H :    0.112818   -0.026111
   6 H :    0.111183   -0.025705
   7 H :    0.109595   -0.000245
   8 H :    0.111549    0.000554
   9 H :    0.108776   -0.000113
  10 H :    0.109712    0.000015
  11 H :    0.108863    0.008100
  12 H :    0.109055    0.000317

  Mayer bond orders larger than 0.100000
B(  0-C ,  1-C ) :   1.0806 B(  0-C ,  2-C ) :   1.0949 B(  0-C ,  3-C ) :   1.0758
B(  0-C ,  4-H ) :   0.9104 B(  1-C ,  5-H ) :   0.9421 B(  1-C ,  6-H ) :   0.9412
B(  2-C ,  7-H ) :   0.9579 B(  2-C ,  8-H ) :   0.9599 B(  2-C ,  9-H ) :   0.9566
B(  3-C , 10-H ) :   0.9603 B(  3-C , 11-H ) :   0.9536 B(  3-C , 12-H ) :   0.9576

Dispersion correction           -0.014387369
FINAL SINGLE POINT ENERGY      -157.545014142312

DIPOLE MOMENT
-------------
                                X             Y             Z
Electronic contribution:     -1.26614      -0.03973      -0.24399
Nuclear contribution   :      1.34002       0.08660       0.20495
                        -----------------------------------------
Total Dipole Moment    :      0.07388       0.04687      -0.03904
                        -----------------------------------------
Magnitude (a.u.)       :      0.09581
Magnitude (Debye)      :      0.24352

Rotational constants in cm-1:     0.275292     0.261497     0.154744
Rotational constants in MHz :  8253.059169  7839.478666  4639.114459

                             ****ORCA TERMINATED NORMALLY****
TOTAL RUN TIME: 0 days 2 hours 0 minutes 1 seconds 547 msec
