                         Program Version 4.2.1 -  RELEASE  -
|  1> ! UKS B3LYP def2-SV(P) def2/J D3BJ Opt
|  2> %scf Convergence VeryTight
|  3> SmearTemp 2000
|  4> maxiter 500
|  5> end
|  6> *xyz 0 2
|  7> C -0.013531 0.080692 -0.405817
|  8> C 1.100578 -0.893964 -0.035812
|  9> C 0.258437 1.320463 0.415014
| 10> C -1.378238 -0.501209 -0.149636
| 11> H 0.086033 0.318044 -1.495565
| 12> H 2.04364 -0.440969 -0.376977
| 13> H 0.854804 -1.845263 -0.529144
| 14> H -0.618758 1.9544 0.57079
| 15> H 1.094952 1.851714 -0.105926
| 16> H 0.651839 1.063777 1.425385
| 17> H -1.896545 -0.692155 -1.123748
| 18> H -1.336756 -1.494497 0.355981
| 19> H -2.006439 0.232899 0.388696
| 20> *
| 21>
| 22>                          ****END OF INPUT****
 Total Charge           Charge          ....    0
 Multiplicity           Mult            ....    2
 Number of Electrons    NEL             ....   33
Dispersion correction           -0.014576097
FINAL SINGLE POINT ENERGY      -157.516318370915
Dispersion correction            ... done
Dispersion correction           -0.014307542
FINAL SINGLE POINT ENERGY      -157.529919395977
Dispersion correction            ... done
Dispersion correction           -0.014229360
FINAL SINGLE POINT ENERGY      -157.535366807663
Dispersion correction            ... done
FINAL SINGLE POINT ENERGY      -157.537670781522
FINAL SINGLE POINT ENERGY      -157.538973238198
FINAL SINGLE POINT ENERGY      -157.539971692118
FINAL SINGLE POINT ENERGY      -157.540820875100
FINAL SINGLE POINT ENERGY      -157.541596218404
FINAL SINGLE POINT ENERGY      -157.542363625594
FINAL SINGLE POINT ENERGY      -157.543147643019
FINAL SINGLE POINT ENERGY      -157.543922439838
FINAL SINGLE POINT ENERGY      -157.544584525706
FINAL SINGLE POINT ENERGY      -157.545047619528
FINAL SINGLE POINT ENERGY      -157.545273333084
FINAL SINGLE POINT ENERGY      -157.545303235061
Dispersion correction            ... done
Dispersion correction           -0.014374536
FINAL SINGLE POINT ENERGY      -157.545310490967
Dispersion correction            ... done
Dispersion correction           -0.014373202
FINAL SINGLE POINT ENERGY      -157.545312999098
Dispersion correction            ... done
                    ***********************HURRAY********************

CARTESIAN COORDINATES (ANGSTROEM)
---------------------------------
  C     -0.023889    0.137951   -0.453278
  C      1.075223   -0.875152   -0.493844
  C      0.305571    1.298946    0.499282
  C     -1.379812   -0.503343   -0.113508
  H     -0.123460    0.579171   -1.474013
  H      2.120278   -0.569227   -0.361839
  H      0.878198   -1.898545   -0.834486
  H     -0.481383    2.074978    0.468848
  H      1.263893    1.777489    0.226317
  H      0.391542    0.939419    1.541458
  H     -1.625554   -1.318356   -0.818457
  H     -1.365852   -0.931660    0.905917
  H     -2.194740    0.242262   -0.159155

 Multiplicity           Mult            ....    2
 Number of Electrons    NEL             ....   33
 Basis Dimension        Dim             ....   74

ORBITAL ENERGIES
----------------
                 SPIN UP ORBITALS
  NO   OCC          E(Eh)            E(eV)
   0   1.0000     -10.188269      -277.2369
   1   1.0000     -10.180171      -277.0165
   2   1.0000     -10.168422      -276.6968
   3   1.0000     -10.168213      -276.6911
   4   1.0000      -0.793766       -21.5995
   5   1.0000      -0.671782       -18.2801
   6   1.0000      -0.661612       -18.0034
   7   1.0000      -0.548886       -14.9359
   8   1.0000      -0.456023       -12.4090
   9   1.0000      -0.439486       -11.9590
  10   1.0000      -0.430555       -11.7160
  11   1.0000      -0.382526       -10.4091
  12   1.0000      -0.367668       -10.0048
  13   1.0000      -0.347132        -9.4459
  14   1.0000      -0.338308        -9.2058
  15   1.0000      -0.332773        -9.0552
  16   1.0000      -0.202157        -5.5010
  17   0.0000       0.058617         1.5950
  18   0.0000       0.105431         2.8689
  19   0.0000       0.107285         2.9194
  20   0.0000       0.108175         2.9436
  21   0.0000       0.123549         3.3619

                 SPIN DOWN ORBITALS
  NO   OCC          E(Eh)            E(eV)
   0   1.0000     -10.189234      -277.2631
   1   1.0000     -10.167998      -276.6853
   2   1.0000     -10.167816      -276.6803
   3   1.0000     -10.165685      -276.6223
   4   1.0000      -0.786765       -21.4090
   5   1.0000      -0.671167       -18.2634
   6   1.0000      -0.638202       -17.3664
   7   1.0000      -0.538745       -14.6600
   8   1.0000      -0.449955       -12.2439
   9   1.0000      -0.433802       -11.8044
  10   1.0000      -0.428090       -11.6489
  11   1.0000      -0.381993       -10.3945
  12   1.0000      -0.365106        -9.9350
  13   1.0000      -0.340583        -9.2677
  14   1.0000      -0.331416        -9.0183
  15   1.0000      -0.330457        -8.9922
  16   0.0000      -0.045951        -1.2504
  17   0.0000       0.061234         1.6663
  18   0.0000       0.107267         2.9189
  19   0.0000       0.107769         2.9326
  20   0.0000       0.115486         3.1425

LOEWDIN ATOMIC CHARGES AND SPIN POPULATIONS
-------------------------------------------
   0 C :   -0.158789   -0.013592
   1 C :   -0.224032    0.978785
   2 C :   -0.308405    0.013832
   3 C :   -0.309109    0.014585
   4 H :    0.115807    0.054168
   5 H :    0.111870   -0.025524
   6 H :    0.111940   -0.025449
   7 H :    0.109807    0.000594
   8 H :    0.110100   -0.000424
   9 H :    0.110312    0.001333
  10 H :    0.110330   -0.000423
  11 H :    0.110544    0.001328
  12 H :    0.109626    0.000785

  Mayer bond orders larger than 0.100000
B(  0-C ,  1-C ) :   1.0804 B(  0-C ,  2-C ) :   1.0892 B(  0-C ,  3-C ) :   1.0904
B(  0-C ,  4-H ) :   0.8972 B(  1-C ,  5-H ) :   0.9416 B(  1-C ,  6-H ) :   0.9403
B(  2-C ,  7-H ) :   0.9577 B(  2-C ,  8-H ) :   0.9576 B(  2-C ,  9-H ) :   0.9590
B(  3-C , 10-H ) :   0.9580 B(  3-C , 11-H ) :   0.9583 B(  3-C , 12-H ) :   0.9573

Dispersion correction           -0.014374091
FINAL SINGLE POINT ENERGY      -157.545313120969

DIPOLE MOMENT
-------------
                                X             Y             Z
Electronic contribution:      0.81086      -0.53197      -0.67664
Nuclear contribution   :     -0.85666       0.60302       0.59788
                        -----------------------------------------
Total Dipole Moment    :     -0.04581       0.07105      -0.07876
                        -----------------------------------------
Magnitude (a.u.)       :      0.11554
Magnitude (Debye)      :      0.29367

Rotational constants in cm-1:     0.279018     0.261926     0.152932
Rotational constants in MHz :  8364.743415  7852.354289  4584.786181

                             ****ORCA TERMINATED NORMALLY****
TOTAL RUN TIME: 0 days 2 hours 17 minutes 40 seconds 746 msec
