                         Program Version 4.2.1 -  RELEASE  -
|  1> ! UKS B3LYP def2-SV(P) def2/J D3BJ Opt
|  2> %scf Convergence VeryTight
|  3> SmearTemp 2000
|  4> maxiter 500
|  5> end
|  6> *xyz 0 2
|  7> C -0.013801 0.075577 0.399739
|  8> C -0.348355 1.386235 -0.271444
|  9> C 1.360581 -0.419639 0.068919
| 10> C -1.012493 -0.978134 -0.044105
| 11> H -0.1868 0.210216 1.494906
| 12> H -1.452313 1.513981 -0.137465
| 13> H -0.107453 1.367219 -1.359916
| 14> H 1.359594 -1.460325 -0.340495
| 15> H 1.93323 -0.481087 1.029512
| 16> H 1.920686 0.247782 -0.614047
| 17> H -0.586168 -1.454504 -0.942256
| 18> H -1.091176 -1.764691 0.733695
| 19> H -1.960313 -0.467155 -0.259917
| 20> *
| 21>
| 22>                          ****END OF INPUT****
 Total Charge           Charge          ....    0
 Multiplicity           Mult            ....    2
 Number of Electrons    NEL             ....   33
 Basis Dimension        Dim             ....   74

ORBITAL ENERGIES
----------------
                 SPIN UP ORBITALS
  NO   OCC          E(Eh)            E(eV)
   0   1.0000     -10.189687      -277.2755
   1   1.0000     -10.182163      -277.0708
   2   1.0000     -10.171372      -276.7771
   3   1.0000     -10.166279      -276.6385
   4   1.0000      -0.807942       -21.9852
   5   1.0000      -0.673808       -18.3352
   6   1.0000      -0.664295       -18.0764
   7   1.0000      -0.548826       -14.9343
   8   1.0000      -0.463486       -12.6121
   9   1.0000      -0.435511       -11.8509
  10   1.0000      -0.424352       -11.5472
  11   1.0000      -0.384925       -10.4743
  12   1.0000      -0.382300       -10.4029
  13   1.0000      -0.342571        -9.3218
  14   1.0000      -0.331336        -9.0161
  15   1.0000      -0.318958        -8.6793
  16   1.0000      -0.230374        -6.2688
  17   0.0000       0.056881         1.5478
  18   0.0000       0.084706         2.3050
  19   0.0000       0.104558         2.8452
  20   0.0000       0.111874         3.0442
  21   0.0000       0.117031         3.1846

                 SPIN DOWN ORBITALS
  NO   OCC          E(Eh)            E(eV)
   0   1.0000     -10.182447      -277.0785
   1   1.0000     -10.174386      -276.8591
   2   1.0000     -10.169929      -276.7378
   3   1.0000     -10.166210      -276.6366
   4   1.0000      -0.801390       -21.8069
   5   1.0000      -0.671758       -18.2795
   6   1.0000      -0.643536       -17.5115
   7   1.0000      -0.542165       -14.7531
   8   1.0000      -0.460285       -12.5250
   9   1.0000      -0.430535       -11.7154
  10   1.0000      -0.417302       -11.3554
  11   1.0000      -0.384295       -10.4572
  12   1.0000      -0.373161       -10.1542
  13   1.0000      -0.335685        -9.1345
  14   1.0000      -0.328295        -8.9334
  15   1.0000      -0.313418        -8.5285
  16   0.0000      -0.066863        -1.8194
  17   0.0000       0.058912         1.6031
  18   0.0000       0.086628         2.3573
  19   0.0000       0.107649         2.9293
  20   0.0000       0.114126         3.1055

LOEWDIN ATOMIC CHARGES AND SPIN POPULATIONS
-------------------------------------------
   0 C :   -0.179907    0.002006
   1 C :   -0.203142    0.945022
   2 C :   -0.309635    0.002561
   3 C :   -0.301816    0.048435
   4 H :    0.111972    0.015408
   5 H :    0.101073   -0.012098
   6 H :    0.104688   -0.009921
   7 H :    0.109382   -0.000933
   8 H :    0.115175   -0.000840
   9 H :    0.115095   -0.000352
  10 H :    0.110739    0.000174
  11 H :    0.116055    0.008845
  12 H :    0.110321    0.001695

  Mayer bond orders larger than 0.100000
B(  0-C ,  1-C ) :   1.1100 B(  0-C ,  2-C ) :   1.0737 B(  0-C ,  3-C ) :   1.0779
B(  0-C ,  4-H ) :   0.9198 B(  1-C ,  5-H ) :   0.9430 B(  1-C ,  6-H ) :   0.9435
B(  2-C ,  7-H ) :   0.9597 B(  2-C ,  8-H ) :   0.9570 B(  2-C ,  9-H ) :   0.9592
B(  3-C , 10-H ) :   0.9566 B(  3-C , 11-H ) :   0.9507 B(  3-C , 12-H ) :   0.9558

Dispersion correction           -0.014836181
FINAL SINGLE POINT ENERGY      -157.514804265167
Dispersion correction            ... done
Dispersion correction           -0.014474401
FINAL SINGLE POINT ENERGY      -157.529071012614
Dispersion correction            ... done
Dispersion correction           -0.014347600
FINAL SINGLE POINT ENERGY      -157.534400068809
Dispersion correction            ... done
FINAL SINGLE POINT ENERGY      -157.536879364567
FINAL SINGLE POINT ENERGY      -157.538269497348
FINAL SINGLE POINT ENERGY      -157.539144162092
FINAL SINGLE POINT ENERGY      -157.539709217823
FINAL SINGLE POINT ENERGY      -157.540138747529
FINAL SINGLE POINT ENERGY      -157.540635432534
FINAL SINGLE POINT ENERGY      -157.541108995110
FINAL SINGLE POINT ENERGY      -157.542784105447
FINAL SINGLE POINT ENERGY      -157.542786997132
FINAL SINGLE POINT ENERGY      -157.542788017423
FINAL SINGLE POINT ENERGY      -157.542796780947
FINAL SINGLE POINT ENERGY      -157.542798192108
FINAL SINGLE POINT ENERGY      -157.542801527735
FINAL SINGLE POINT ENERGY      -157.542802949599
Dispersion correction           -0.014314142
FINAL SINGLE POINT ENERGY      -157.542809973673
Dispersion correction            ... done
Dispersion correction           -0.014314462
FINAL SINGLE POINT ENERGY      -157.542811254942
Dispersion correction            ... done

CARTESIAN COORDINATES (ANGSTROEM)
---------------------------------
  C     -0.074050    0.002876    0.308202
  C     -0.355948    1.274454   -0.438540
  C      1.379542   -0.461228    0.113714
  C     -1.109167   -1.085742   -0.084392
  H     -0.228829    0.222785    1.389104
  H     -1.394921    1.570263   -0.636264
  H      0.398627    2.067647   -0.523785
  H      1.526997   -1.487217    0.496349
  H      2.084542    0.187391    0.666005
  H      1.672234   -0.441035   -0.950949
  H     -1.183974   -1.158974   -1.185261
  H     -0.792822   -2.075940    0.286517
  H     -2.107013   -0.839806    0.316427

Dispersion correction           -0.014319790
FINAL SINGLE POINT ENERGY      -157.542828701551
Dispersion correction            ... done

DIPOLE MOMENT
-------------
                                X             Y             Z
Electronic contribution:     -0.26875       1.05629       0.11466
Nuclear contribution   :      0.27528      -1.09720       0.01554
                        -----------------------------------------
Total Dipole Moment    :      0.00653      -0.04091       0.13020
                        -----------------------------------------
Magnitude (a.u.)       :      0.13663
Magnitude (Debye)      :      0.34729

Rotational constants in cm-1:     0.280359     0.259037     0.152377
Rotational constants in MHz :  8404.945223  7765.730506  4568.158407

                             ****ORCA TERMINATED NORMALLY****
TOTAL RUN TIME: 0 days 2 hours 53 minutes 20 seconds 449 msec
