                         Program Version 4.2.1 -  RELEASE  -
|  1> ! UKS B3LYP def2-SV(P) def2/J D3BJ Opt
|  2> %scf Convergence VeryTight
|  3> SmearTemp 2000
|  4> maxiter 500
|  5> end
|  6> *xyz 0 2
|  7> C 0.072221 -0.032482 -0.346561
|  8> C 0.505744 1.301146 0.180439
|  9> C -1.411939 -0.161291 -0.122208
| 10> C 0.859189 -1.191009 0.177817
| 11> H 0.212715 -0.009292 -1.458175
| 12> H 0.923668 1.947962 -0.632595
| 13> H 1.273966 1.24313 0.964704
| 14> H -1.690969 -0.415783 0.909117
| 15> H -1.839215 0.850244 -0.33206
| 16> H -1.879757 -0.839576 -0.877447
| 17> H 0.274192 -1.913705 0.771976
| 18> H 1.724278 -0.894638 0.817025
| 19> H 1.313489 -1.79121 -0.651259
| 20> *
| 21>
| 22>                          ****END OF INPUT****
 Total Charge           Charge          ....    0
 Multiplicity           Mult            ....    2
 Number of Electrons    NEL             ....   33
Dispersion correction           -0.014409519
FINAL SINGLE POINT ENERGY      -157.518066111720
Dispersion correction            ... done
Dispersion correction           -0.014192509
FINAL SINGLE POINT ENERGY      -157.528965850277
Dispersion correction            ... done
Dispersion correction           -0.014156061
FINAL SINGLE POINT ENERGY      -157.533708624684
Dispersion correction            ... done
FINAL SINGLE POINT ENERGY      -157.536295799743
FINAL SINGLE POINT ENERGY      -157.537834523167
FINAL SINGLE POINT ENERGY      -157.538893577983
FINAL SINGLE POINT ENERGY      -157.539694288704
FINAL SINGLE POINT ENERGY      -157.540325314072
FINAL SINGLE POINT ENERGY      -157.540906427941
FINAL SINGLE POINT ENERGY      -157.541554040143
FINAL SINGLE POINT ENERGY      -157.542296572194
FINAL SINGLE POINT ENERGY      -157.543082415131
FINAL SINGLE POINT ENERGY      -157.543843813389
FINAL SINGLE POINT ENERGY      -157.544480608626
FINAL SINGLE POINT ENERGY      -157.544875922424
FINAL SINGLE POINT ENERGY      -157.544986496360
Dispersion correction            ... done
Dispersion correction           -0.014388101
FINAL SINGLE POINT ENERGY      -157.544972509894
Dispersion correction            ... done
Dispersion correction           -0.014389537
FINAL SINGLE POINT ENERGY      -157.545002972339
Dispersion correction            ... done
                    ***********************HURRAY********************

CARTESIAN COORDINATES (ANGSTROEM)
---------------------------------
  C      0.187621   -0.007162   -0.408160
  C      0.683775    1.239894    0.255192
  C     -1.349524   -0.131792   -0.286326
  C      0.882637   -1.261097    0.142601
  H      0.414739    0.065028   -1.491668
  H      0.517620    2.220750   -0.206501
  H      1.048105    1.216389    1.289569
  H     -1.652289   -0.217989    0.773550
  H     -1.858772    0.751155   -0.712625
  H     -1.714749   -1.028559   -0.821777
  H      0.674013   -1.380088    1.223119
  H      1.978527   -1.200546    0.013992
  H      0.525879   -2.172486   -0.370192

 Multiplicity           Mult            ....    2
 Number of Electrons    NEL             ....   33
 Basis Dimension        Dim             ....   74

ORBITAL ENERGIES
----------------
                 SPIN UP ORBITALS
  NO   OCC          E(Eh)            E(eV)
   0   1.0000     -10.187432      -277.2141
   1   1.0000     -10.179845      -277.0077
   2   1.0000     -10.170182      -276.7447
   3   1.0000     -10.167772      -276.6791
   4   1.0000      -0.793175       -21.5834
   5   1.0000      -0.671204       -18.2644
   6   1.0000      -0.661172       -17.9914
   7   1.0000      -0.549814       -14.9612
   8   1.0000      -0.461901       -12.5690
   9   1.0000      -0.432259       -11.7624
  10   1.0000      -0.420979       -11.4554
  11   1.0000      -0.387034       -10.5317
  12   1.0000      -0.377714       -10.2781
  13   1.0000      -0.344800        -9.3825
  14   1.0000      -0.339352        -9.2342
  15   1.0000      -0.327585        -8.9141
  16   1.0000      -0.201909        -5.4942
  17   0.0000       0.059224         1.6116
  18   0.0000       0.097725         2.6592
  19   0.0000       0.106415         2.8957
  20   0.0000       0.112711         3.0670
  21   0.0000       0.122811         3.3419

                 SPIN DOWN ORBITALS
  NO   OCC          E(Eh)            E(eV)
   0   1.0000     -10.188342      -277.2389
   1   1.0000     -10.168693      -276.7042
   2   1.0000     -10.167555      -276.6732
   3   1.0000     -10.165208      -276.6094
   4   1.0000      -0.785786       -21.3823
   5   1.0000      -0.669412       -18.2156
   6   1.0000      -0.637336       -17.3428
   7   1.0000      -0.541126       -14.7248
   8   1.0000      -0.457339       -12.4448
   9   1.0000      -0.429532       -11.6882
  10   1.0000      -0.414103       -11.2683
  11   1.0000      -0.384083       -10.4514
  12   1.0000      -0.374312       -10.1855
  13   1.0000      -0.338036        -9.1984
  14   1.0000      -0.334747        -9.1089
  15   1.0000      -0.325362        -8.8536
  16   0.0000      -0.044901        -1.2218
  17   0.0000       0.060803         1.6545
  18   0.0000       0.099205         2.6995
  19   0.0000       0.111944         3.0462
  20   0.0000       0.116687         3.1752

LOEWDIN ATOMIC CHARGES AND SPIN POPULATIONS
-------------------------------------------
   0 C :   -0.160246   -0.012654
   1 C :   -0.221230    0.978257
   2 C :   -0.305874    0.049921
   3 C :   -0.309436    0.008197
   4 H :    0.113551    0.018722
   5 H :    0.111682   -0.025727
   6 H :    0.112964   -0.025961
   7 H :    0.108862    0.000144
   8 H :    0.109824    0.000027
   9 H :    0.108764    0.008574
  10 H :    0.109202   -0.000231
  11 H :    0.112431    0.000563
  12 H :    0.109507    0.000168

  Mayer bond orders larger than 0.100000
B(  0-C ,  1-C ) :   1.0795 B(  0-C ,  2-C ) :   1.0725 B(  0-C ,  3-C ) :   1.0915
B(  0-C ,  4-H ) :   0.9124 B(  1-C ,  5-H ) :   0.9414 B(  1-C ,  6-H ) :   0.9404
B(  2-C ,  7-H ) :   0.9587 B(  2-C ,  8-H ) :   0.9603 B(  2-C ,  9-H ) :   0.9541
B(  3-C , 10-H ) :   0.9560 B(  3-C , 11-H ) :   0.9601 B(  3-C , 12-H ) :   0.9582

Dispersion correction           -0.014389054
FINAL SINGLE POINT ENERGY      -157.545004337253

DIPOLE MOMENT
-------------
                                X             Y             Z
Electronic contribution:      0.69505       1.04708      -0.33424
Nuclear contribution   :     -0.77106      -1.09377       0.28807
                        -----------------------------------------
Total Dipole Moment    :     -0.07602      -0.04669      -0.04618
                        -----------------------------------------
Magnitude (a.u.)       :      0.10045
Magnitude (Debye)      :      0.25533

Rotational constants in cm-1:     0.274732     0.261611     0.155015
Rotational constants in MHz :  8236.273011  7842.910568  4647.243550

                             ****ORCA TERMINATED NORMALLY****
TOTAL RUN TIME: 0 days 2 hours 21 minutes 31 seconds 2 msec
