                         Program Version 4.2.1 -  RELEASE  -
|  1> ! UKS B3LYP def2-SV(P) def2/J D3BJ Opt
|  2> %scf Convergence VeryTight
|  3> SmearTemp 2000
|  4> maxiter 500
|  5> end
|  6> *xyz 0 2
|  7> C 0.065938 -0.016435 -0.305895
|  8> C -1.209786 -0.820465 -0.109793
|  9> C 1.250622 -0.635312 0.370333
| 10> C -0.123539 1.43293 0.046074
| 11> H 0.269424 -0.055465 -1.40549
| 12> H -2.02012 -0.216218 -0.592406
| 13> H -1.157502 -1.762487 -0.712309
| 14> H 1.417615 -1.64138 -0.061949
| 15> H 2.143556 -0.033596 0.06474
| 16> H 1.216795 -0.612873 1.467722
| 17> H -0.950459 1.821362 -0.575084
| 18> H 0.806183 1.962775 -0.282903
| 19> H -0.28748 1.591521 1.138588
| 20> *
| 21>
| 22>                          ****END OF INPUT****
 Total Charge           Charge          ....    0
 Multiplicity           Mult            ....    2
 Number of Electrons    NEL             ....   33
Dispersion correction           -0.014548150
FINAL SINGLE POINT ENERGY      -157.522005612885
Dispersion correction            ... done
Dispersion correction           -0.014339870
FINAL SINGLE POINT ENERGY      -157.534849403632
Dispersion correction            ... done
Dispersion correction           -0.014297873
FINAL SINGLE POINT ENERGY      -157.540925561935
Dispersion correction            ... done
FINAL SINGLE POINT ENERGY      -157.543764637856
FINAL SINGLE POINT ENERGY      -157.544712648106
FINAL SINGLE POINT ENERGY      -157.545072252768
FINAL SINGLE POINT ENERGY      -157.545235086650
FINAL SINGLE POINT ENERGY      -157.545284861447
FINAL SINGLE POINT ENERGY      -157.545296293524
FINAL SINGLE POINT ENERGY      -157.545299379120
FINAL SINGLE POINT ENERGY      -157.545299090278
FINAL SINGLE POINT ENERGY      -157.545295820098
FINAL SINGLE POINT ENERGY      -157.545287414057
Dispersion correction            ... done
Dispersion correction           -0.014376773
FINAL SINGLE POINT ENERGY      -157.545275352536
Dispersion correction            ... done
Dispersion correction           -0.014377667
FINAL SINGLE POINT ENERGY      -157.545267550489
Dispersion correction            ... done
                    ***********************HURRAY********************

CARTESIAN COORDINATES (ANGSTROEM)
---------------------------------
  C      0.095629    0.020148   -0.456476
  C     -1.166145   -0.775085   -0.342672
  C      1.264623   -0.652547    0.279544
  C     -0.104420    1.472194    0.014628
  H      0.375789    0.071611   -1.535541
  H     -2.132084   -0.324184   -0.599775
  H     -1.138697   -1.853543   -0.147030
  H      1.431049   -1.680881   -0.089612
  H      2.202630   -0.085480    0.138038
  H      1.062199   -0.711100    1.365530
  H     -0.930788    1.960743   -0.532906
  H      0.811202    2.071055   -0.144670
  H     -0.349739    1.501425    1.092570

 Multiplicity           Mult            ....    2
 Number of Electrons    NEL             ....   33
 Basis Dimension        Dim             ....   74

ORBITAL ENERGIES
----------------
                 SPIN UP ORBITALS
  NO   OCC          E(Eh)            E(eV)
   0   1.0000     -10.188367      -277.2396
   1   1.0000     -10.179977      -277.0112
   2   1.0000     -10.168660      -276.7033
   3   1.0000     -10.168146      -276.6893
   4   1.0000      -0.793659       -21.5966
   5   1.0000      -0.671647       -18.2764
   6   1.0000      -0.661373       -17.9969
   7   1.0000      -0.549004       -14.9392
   8   1.0000      -0.456162       -12.4128
   9   1.0000      -0.438796       -11.9402
  10   1.0000      -0.430570       -11.7164
  11   1.0000      -0.382550       -10.4097
  12   1.0000      -0.367976       -10.0131
  13   1.0000      -0.347019        -9.4429
  14   1.0000      -0.338232        -9.2038
  15   1.0000      -0.332462        -9.0468
  16   1.0000      -0.201807        -5.4915
  17   0.0000       0.059132         1.6091
  18   0.0000       0.105409         2.8683
  19   0.0000       0.107553         2.9267
  20   0.0000       0.107769         2.9326
  21   0.0000       0.123150         3.3511

                 SPIN DOWN ORBITALS
  NO   OCC          E(Eh)            E(eV)
   0   1.0000     -10.189336      -277.2659
   1   1.0000     -10.168067      -276.6872
   2   1.0000     -10.167882      -276.6821
   3   1.0000     -10.165491      -276.6171
   4   1.0000      -0.786656       -21.4060
   5   1.0000      -0.670991       -18.2586
   6   1.0000      -0.637863       -17.3571
   7   1.0000      -0.538932       -14.6651
   8   1.0000      -0.450220       -12.2511
   9   1.0000      -0.433055       -11.7840
  10   1.0000      -0.428073       -11.6484
  11   1.0000      -0.381989       -10.3945
  12   1.0000      -0.365321        -9.9409
  13   1.0000      -0.340434        -9.2637
  14   1.0000      -0.331860        -9.0304
  15   1.0000      -0.329741        -8.9727
  16   0.0000      -0.045690        -1.2433
  17   0.0000       0.061685         1.6785
  18   0.0000       0.106998         2.9116
  19   0.0000       0.108504         2.9525
  20   0.0000       0.115097         3.1319

LOEWDIN ATOMIC CHARGES AND SPIN POPULATIONS
-------------------------------------------
   0 C :   -0.159955   -0.013742
   1 C :   -0.223904    0.979434
   2 C :   -0.308858    0.009602
   3 C :   -0.308586    0.020013
   4 H :    0.116448    0.052766
   5 H :    0.111206   -0.025580
   6 H :    0.112656   -0.025951
   7 H :    0.110382   -0.000345
   8 H :    0.109399   -0.000108
   9 H :    0.110987    0.001142
  10 H :    0.110363   -0.000423
  11 H :    0.109072    0.001870
  12 H :    0.110791    0.001321

  Mayer bond orders larger than 0.100000
B(  0-C ,  1-C ) :   1.0778 B(  0-C ,  2-C ) :   1.0941 B(  0-C ,  3-C ) :   1.0901
B(  0-C ,  4-H ) :   0.8979 B(  1-C ,  5-H ) :   0.9408 B(  1-C ,  6-H ) :   0.9418
B(  2-C ,  7-H ) :   0.9561 B(  2-C ,  8-H ) :   0.9583 B(  2-C ,  9-H ) :   0.9585
B(  3-C , 10-H ) :   0.9578 B(  3-C , 11-H ) :   0.9568 B(  3-C , 12-H ) :   0.9584

Dispersion correction           -0.014377235
FINAL SINGLE POINT ENERGY      -157.545267265014

DIPOLE MOMENT
-------------
                                X             Y             Z
Electronic contribution:     -0.82660      -0.60619      -0.61440
Nuclear contribution   :      0.89157       0.63452       0.53884
                        -----------------------------------------
Total Dipole Moment    :      0.06496       0.02833      -0.07556
                        -----------------------------------------
Magnitude (a.u.)       :      0.10360
Magnitude (Debye)      :      0.26333

Rotational constants in cm-1:     0.278746     0.262015     0.153057
Rotational constants in MHz :  8356.602945  7855.013600  4588.547641

                             ****ORCA TERMINATED NORMALLY****
TOTAL RUN TIME: 0 days 2 hours 7 minutes 38 seconds 66 msec
