                         Program Version 4.2.1 -  RELEASE  -
|  1> ! UKS B3LYP def2-SV(P) def2/J D3BJ Opt
|  2> %scf Convergence VeryTight
|  3> SmearTemp 2000
|  4> maxiter 500
|  5> end
|  6> *xyz 0 2
|  7> C -0.078024 0.057177 0.373548
|  8> C 1.265433 -0.608904 0.147611
|  9> C -1.175437 -0.828589 -0.146067
| 10> C -0.094988 1.436795 -0.232256
| 11> H -0.249116 0.163443 1.475314
| 12> H 1.875218 -0.458865 1.074147
| 13> H 1.106826 -1.685632 -0.082089
| 14> H -0.962242 -1.860898 0.229844
| 15> H -1.196159 -0.908035 -1.249728
| 16> H -2.174879 -0.573486 0.259115
| 17> H -0.392092 2.215481 0.515502
| 18> H 0.958985 1.702901 -0.50014
| 19> H -0.70523 1.500086 -1.15741
| 20> *
| 21>
| 22>                          ****END OF INPUT****
 Total Charge           Charge          ....    0
 Multiplicity           Mult            ....    2
 Number of Electrons    NEL             ....   33
Dispersion correction           -0.014506110
FINAL SINGLE POINT ENERGY      -157.517673108129
Dispersion correction            ... done
Dispersion correction           -0.014263482
FINAL SINGLE POINT ENERGY      -157.530247435421
Dispersion correction            ... done
Dispersion correction           -0.014214881
FINAL SINGLE POINT ENERGY      -157.535443196870
Dispersion correction            ... done
FINAL SINGLE POINT ENERGY      -157.538053910028
FINAL SINGLE POINT ENERGY      -157.539616520817
FINAL SINGLE POINT ENERGY      -157.540822151492
FINAL SINGLE POINT ENERGY      -157.541844705446
FINAL SINGLE POINT ENERGY      -157.542729218380
FINAL SINGLE POINT ENERGY      -157.543507958427
FINAL SINGLE POINT ENERGY      -157.544174707094
FINAL SINGLE POINT ENERGY      -157.545100055398
FINAL SINGLE POINT ENERGY      -157.545114945601
FINAL SINGLE POINT ENERGY      -157.545153829955
FINAL SINGLE POINT ENERGY      -157.545213403135
FINAL SINGLE POINT ENERGY      -157.545267754953
FINAL SINGLE POINT ENERGY      -157.545292556120
FINAL SINGLE POINT ENERGY      -157.545299379188
Dispersion correction            ... done
Dispersion correction           -0.014372167
FINAL SINGLE POINT ENERGY      -157.545302347557
Dispersion correction            ... done
Dispersion correction           -0.014372993
FINAL SINGLE POINT ENERGY      -157.545302524286
Dispersion correction            ... done
                    ***********************HURRAY********************

CARTESIAN COORDINATES (ANGSTROEM)
---------------------------------
  C     -0.065317   -0.019770    0.430102
  C      1.217715   -0.742226    0.166494
  C     -1.280446   -0.812077   -0.081184
  C     -0.043284    1.408380   -0.138986
  H     -0.185544    0.076009    1.535622
  H      2.168222   -0.197940    0.114590
  H      1.255800   -1.838269    0.186762
  H     -1.307160   -1.827051    0.354784
  H     -1.244671   -0.917516   -1.181476
  H     -2.226086   -0.304681    0.183885
  H     -0.968955    1.954611    0.119756
  H      0.813045    1.983347    0.258517
  H      0.044975    1.388656   -1.241474

 Multiplicity           Mult            ....    2
 Number of Electrons    NEL             ....   33
 Basis Dimension        Dim             ....   74

ORBITAL ENERGIES
----------------
                 SPIN UP ORBITALS
  NO   OCC          E(Eh)            E(eV)
   0   1.0000     -10.188360      -277.2394
   1   1.0000     -10.180447      -277.0241
   2   1.0000     -10.168528      -276.6997
   3   1.0000     -10.168332      -276.6944
   4   1.0000      -0.793678       -21.5971
   5   1.0000      -0.671733       -18.2788
   6   1.0000      -0.661412       -17.9979
   7   1.0000      -0.548953       -14.9378
   8   1.0000      -0.455933       -12.4066
   9   1.0000      -0.439429       -11.9575
  10   1.0000      -0.430515       -11.7149
  11   1.0000      -0.382602       -10.4111
  12   1.0000      -0.367547       -10.0014
  13   1.0000      -0.347142        -9.4462
  14   1.0000      -0.338219        -9.2034
  15   1.0000      -0.332708        -9.0535
  16   1.0000      -0.201799        -5.4912
  17   0.0000       0.058833         1.6009
  18   0.0000       0.106114         2.8875
  19   0.0000       0.106963         2.9106
  20   0.0000       0.108136         2.9425
  21   0.0000       0.123225         3.3531

                 SPIN DOWN ORBITALS
  NO   OCC          E(Eh)            E(eV)
   0   1.0000     -10.189324      -277.2656
   1   1.0000     -10.168134      -276.6890
   2   1.0000     -10.167902      -276.6827
   3   1.0000     -10.165973      -276.6302
   4   1.0000      -0.786687       -21.4068
   5   1.0000      -0.671118       -18.2621
   6   1.0000      -0.637959       -17.3597
   7   1.0000      -0.538837       -14.6625
   8   1.0000      -0.449888       -12.2421
   9   1.0000      -0.433728       -11.8024
  10   1.0000      -0.428055       -11.6480
  11   1.0000      -0.382076       -10.3968
  12   1.0000      -0.364978        -9.9316
  13   1.0000      -0.340576        -9.2675
  14   1.0000      -0.331350        -9.0165
  15   1.0000      -0.330371        -8.9899
  16   0.0000      -0.045641        -1.2420
  17   0.0000       0.061387         1.6704
  18   0.0000       0.107313         2.9201
  19   0.0000       0.108186         2.9439
  20   0.0000       0.115326         3.1382

LOEWDIN ATOMIC CHARGES AND SPIN POPULATIONS
-------------------------------------------
   0 C :   -0.160011   -0.013630
   1 C :   -0.224476    0.979390
   2 C :   -0.307682    0.014772
   3 C :   -0.309228    0.013668
   4 H :    0.117091    0.053859
   5 H :    0.111744   -0.025645
   6 H :    0.111935   -0.025566
   7 H :    0.109963   -0.000423
   8 H :    0.111063    0.001263
   9 H :    0.108728    0.000854
  10 H :    0.109317    0.000602
  11 H :    0.110375   -0.000413
  12 H :    0.111181    0.001269

  Mayer bond orders larger than 0.100000
B(  0-C ,  1-C ) :   1.0767 B(  0-C ,  2-C ) :   1.0912 B(  0-C ,  3-C ) :   1.0912
B(  0-C ,  4-H ) :   0.8979 B(  1-C ,  5-H ) :   0.9422 B(  1-C ,  6-H ) :   0.9414
B(  2-C ,  7-H ) :   0.9567 B(  2-C ,  8-H ) :   0.9590 B(  2-C ,  9-H ) :   0.9578
B(  3-C , 10-H ) :   0.9578 B(  3-C , 11-H ) :   0.9573 B(  3-C , 12-H ) :   0.9585

Dispersion correction           -0.014374300
FINAL SINGLE POINT ENERGY      -157.545303418252

DIPOLE MOMENT
-------------
                                X             Y             Z
Electronic contribution:      0.94567      -0.51455       0.49615
Nuclear contribution   :     -0.99819       0.54450      -0.40720
                        -----------------------------------------
Total Dipole Moment    :     -0.05252       0.02995       0.08895
                        -----------------------------------------
Magnitude (a.u.)       :      0.10755
Magnitude (Debye)      :      0.27338

Rotational constants in cm-1:     0.278960     0.261891     0.152946
Rotational constants in MHz :  8363.002136  7851.286739  4585.199571

                             ****ORCA TERMINATED NORMALLY****
TOTAL RUN TIME: 0 days 2 hours 35 minutes 21 seconds 657 msec
