                         Program Version 4.2.1 -  RELEASE  -
|  1> ! UKS B3LYP def2-SV(P) def2/J D3BJ Opt
|  2> %scf Convergence VeryTight
|  3> SmearTemp 2000
|  4> maxiter 500
|  5> end
|  6> *xyz 0 2
|  7> C 0.089792 -0.07288 0.485406
|  8> C 0.198814 1.413693 0.293692
|  9> C -1.328367 -0.476455 0.097331
| 10> C 1.124415 -0.866223 -0.251913
| 11> H 0.273194 -0.252818 1.575996
| 12> H -0.178502 1.649701 -0.733245
| 13> H -0.557889 1.87288 0.97997
| 14> H -1.778577 -0.958997 0.979185
| 15> H -1.231066 -1.130487 -0.782196
| 16> H -1.949483 0.382719 -0.188123
| 17> H 1.681171 -1.580027 0.408605
| 18> H 0.583725 -1.523462 -0.980085
| 19> H 1.858202 -0.262108 -0.80596
| 20> *
| 21>
| 22>                          ****END OF INPUT****
 Total Charge           Charge          ....    0
 Multiplicity           Mult            ....    2
 Number of Electrons    NEL             ....   33
Dispersion correction           -0.014745015
FINAL SINGLE POINT ENERGY      -157.507422511936
Dispersion correction            ... done
Dispersion correction           -0.014381121
FINAL SINGLE POINT ENERGY      -157.522460924307
Dispersion correction            ... done
Dispersion correction           -0.014251839
FINAL SINGLE POINT ENERGY      -157.528691451052
Dispersion correction            ... done
FINAL SINGLE POINT ENERGY      -157.531481991928
FINAL SINGLE POINT ENERGY      -157.532789044953
FINAL SINGLE POINT ENERGY      -157.533785178362
FINAL SINGLE POINT ENERGY      -157.534797288892
FINAL SINGLE POINT ENERGY      -157.535853459501
FINAL SINGLE POINT ENERGY      -157.536925181999
FINAL SINGLE POINT ENERGY      -157.538022345292
FINAL SINGLE POINT ENERGY      -157.542795710857
FINAL SINGLE POINT ENERGY      -157.543717487903
FINAL SINGLE POINT ENERGY      -157.544397984338
FINAL SINGLE POINT ENERGY      -157.544776102758
FINAL SINGLE POINT ENERGY      -157.544955350417
FINAL SINGLE POINT ENERGY      -157.545001263676
FINAL SINGLE POINT ENERGY      -157.545015760135
Dispersion correction            ... done
Dispersion correction           -0.014386302
FINAL SINGLE POINT ENERGY      -157.545030322966
Dispersion correction            ... done
Dispersion correction           -0.014386867
FINAL SINGLE POINT ENERGY      -157.545032427084
Dispersion correction            ... done
                    ***********************HURRAY********************

CARTESIAN COORDINATES (ANGSTROEM)
---------------------------------
  C      0.008526    0.007478    0.462005
  C      0.032680    1.415058   -0.047314
  C     -1.387004   -0.634124    0.273005
  C      1.098629   -0.854145   -0.190195
  H      0.198149    0.033893    1.555313
  H      0.417186    1.643696   -1.048714
  H     -0.493148    2.211054    0.493406
  H     -1.411749   -1.651548    0.706505
  H     -1.639341   -0.712039   -0.800593
  H     -2.173741   -0.034057    0.763792
  H      1.091363   -1.882410    0.214246
  H      0.941139   -0.921315   -1.283867
  H      2.102741   -0.426004   -0.018925

 Multiplicity           Mult            ....    2
 Number of Electrons    NEL             ....   33
 Basis Dimension        Dim             ....   74

ORBITAL ENERGIES
----------------
                 SPIN UP ORBITALS
  NO   OCC          E(Eh)            E(eV)
   0   1.0000     -10.187572      -277.2179
   1   1.0000     -10.179747      -277.0050
   2   1.0000     -10.169932      -276.7379
   3   1.0000     -10.167627      -276.6752
   4   1.0000      -0.793150       -21.5827
   5   1.0000      -0.671120       -18.2621
   6   1.0000      -0.661194       -17.9920
   7   1.0000      -0.549750       -14.9594
   8   1.0000      -0.461597       -12.5607
   9   1.0000      -0.432244       -11.7620
  10   1.0000      -0.421956       -11.4820
  11   1.0000      -0.386534       -10.5181
  12   1.0000      -0.377206       -10.2643
  13   1.0000      -0.344751        -9.3811
  14   1.0000      -0.339151        -9.2288
  15   1.0000      -0.327902        -8.9227
  16   1.0000      -0.201852        -5.4927
  17   0.0000       0.059048         1.6068
  18   0.0000       0.098295         2.6748
  19   0.0000       0.105778         2.8784
  20   0.0000       0.113152         3.0790
  21   0.0000       0.122454         3.3321

                 SPIN DOWN ORBITALS
  NO   OCC          E(Eh)            E(eV)
   0   1.0000     -10.188487      -277.2428
   1   1.0000     -10.168463      -276.6979
   2   1.0000     -10.167442      -276.6702
   3   1.0000     -10.165121      -276.6070
   4   1.0000      -0.785788       -21.3824
   5   1.0000      -0.669392       -18.2151
   6   1.0000      -0.637356       -17.3433
   7   1.0000      -0.540997       -14.7213
   8   1.0000      -0.456990       -12.4353
   9   1.0000      -0.429476       -11.6866
  10   1.0000      -0.415175       -11.2975
  11   1.0000      -0.383799       -10.4437
  12   1.0000      -0.373738       -10.1699
  13   1.0000      -0.337858        -9.1936
  14   1.0000      -0.334663        -9.1066
  15   1.0000      -0.325549        -8.8586
  16   0.0000      -0.045025        -1.2252
  17   0.0000       0.060654         1.6505
  18   0.0000       0.099828         2.7165
  19   0.0000       0.111586         3.0364
  20   0.0000       0.116871         3.1802

LOEWDIN ATOMIC CHARGES AND SPIN POPULATIONS
-------------------------------------------
   0 C :   -0.160812   -0.012769
   1 C :   -0.221301    0.978297
   2 C :   -0.306474    0.049377
   3 C :   -0.308084    0.007338
   4 H :    0.113957    0.020686
   5 H :    0.113050   -0.026046
   6 H :    0.111559   -0.025753
   7 H :    0.108622    0.008336
   8 H :    0.109154    0.000211
   9 H :    0.110118    0.000034
  10 H :    0.109425   -0.000081
  11 H :    0.109280   -0.000173
  12 H :    0.111508    0.000542

  Mayer bond orders larger than 0.100000
B(  0-C ,  1-C ) :   1.0811 B(  0-C ,  2-C ) :   1.0758 B(  0-C ,  3-C ) :   1.0923
B(  0-C ,  4-H ) :   0.9119 B(  1-C ,  5-H ) :   0.9417 B(  1-C ,  6-H ) :   0.9406
B(  2-C ,  7-H ) :   0.9530 B(  2-C ,  8-H ) :   0.9582 B(  2-C ,  9-H ) :   0.9590
B(  3-C , 10-H ) :   0.9579 B(  3-C , 11-H ) :   0.9564 B(  3-C , 12-H ) :   0.9604

Dispersion correction           -0.014388507
FINAL SINGLE POINT ENERGY      -157.545033269242

DIPOLE MOMENT
-------------
                                X             Y             Z
Electronic contribution:      0.27435       1.18373       0.46062
Nuclear contribution   :     -0.32456      -1.25542      -0.42474
                        -----------------------------------------
Total Dipole Moment    :     -0.05021      -0.07169       0.03589
                        -----------------------------------------
Magnitude (a.u.)       :      0.09460
Magnitude (Debye)      :      0.24045

Rotational constants in cm-1:     0.274803     0.261747     0.154881
Rotational constants in MHz :  8238.386214  7846.978109  4643.201455

                             ****ORCA TERMINATED NORMALLY****
TOTAL RUN TIME: 0 days 2 hours 33 minutes 6 seconds 191 msec
