                         Program Version 4.2.1 -  RELEASE  -
|  1> ! UKS B3LYP def2-SV(P) def2/J D3BJ Opt
|  2> %scf Convergence VeryTight
|  3> SmearTemp 2000
|  4> maxiter 500
|  5> end
|  6> *xyz 0 2
|  7> C -0.058653 0.008836 0.382777
|  8> C 1.433147 0.008372 0.17417
|  9> C -0.698141 -1.228168 -0.179633
| 10> C -0.72701 1.227936 -0.231001
| 11> H -0.228406 0.110387 1.48317
| 12> H 1.737048 -0.891871 -0.395083
| 13> H 2.007738 -0.011055 1.1152
| 14> H -1.438439 -1.031604 -0.969732
| 15> H -1.230175 -1.724483 0.642428
| 16> H 0.105594 -1.861341 -0.634424
| 17> H -1.765417 1.211095 0.135288
| 18> H -0.15263 2.100541 0.173099
| 19> H -0.705799 1.158443 -1.324284
| 20> *
| 21>
| 22>                          ****END OF INPUT****
 Total Charge           Charge          ....    0
 Multiplicity           Mult            ....    2
 Number of Electrons    NEL             ....   33
Dispersion correction           -0.014638652
FINAL SINGLE POINT ENERGY      -157.514970858920
Dispersion correction            ... done
Dispersion correction           -0.014296663
FINAL SINGLE POINT ENERGY      -157.528706356100
Dispersion correction            ... done
Dispersion correction           -0.014195567
FINAL SINGLE POINT ENERGY      -157.534098556570
Dispersion correction            ... done
FINAL SINGLE POINT ENERGY      -157.536718279599
FINAL SINGLE POINT ENERGY      -157.538108304283
FINAL SINGLE POINT ENERGY      -157.538931707915
FINAL SINGLE POINT ENERGY      -157.539414793566
FINAL SINGLE POINT ENERGY      -157.539668786778
FINAL SINGLE POINT ENERGY      -157.540069364556
FINAL SINGLE POINT ENERGY      -157.540599504371
FINAL SINGLE POINT ENERGY      -157.541988844758
FINAL SINGLE POINT ENERGY      -157.542843738019
FINAL SINGLE POINT ENERGY      -157.543756611951
FINAL SINGLE POINT ENERGY      -157.544446103575
FINAL SINGLE POINT ENERGY      -157.544784306088
FINAL SINGLE POINT ENERGY      -157.544925922086
FINAL SINGLE POINT ENERGY      -157.544976252766
Dispersion correction            ... done
Dispersion correction           -0.014388021
FINAL SINGLE POINT ENERGY      -157.544994485424
Dispersion correction            ... done
Dispersion correction           -0.014388892
FINAL SINGLE POINT ENERGY      -157.545004037608
Dispersion correction            ... done
                    ***********************HURRAY********************

CARTESIAN COORDINATES (ANGSTROEM)
---------------------------------
  C     -0.036103   -0.110705    0.435808
  C      1.428388   -0.125340    0.125392
  C     -0.757886   -1.330005   -0.155686
  C     -0.697021    1.204406   -0.042884
  H     -0.154707   -0.140813    1.538761
  H      1.804282   -0.613705   -0.782167
  H      2.122937    0.507603    0.690686
  H     -0.680297   -1.332381   -1.260156
  H     -1.831636   -1.324505    0.106525
  H     -0.319482   -2.273242    0.215917
  H     -1.767154    1.230056    0.237471
  H     -0.205309    2.086203    0.404903
  H     -0.627154    1.299515   -1.142594

 Multiplicity           Mult            ....    2
 Number of Electrons    NEL             ....   33
 Basis Dimension        Dim             ....   74

ORBITAL ENERGIES
----------------
                 SPIN UP ORBITALS
  NO   OCC          E(Eh)            E(eV)
   0   1.0000     -10.187785      -277.2237
   1   1.0000     -10.180162      -277.0163
   2   1.0000     -10.170430      -276.7515
   3   1.0000     -10.167835      -276.6808
   4   1.0000      -0.793236       -21.5851
   5   1.0000      -0.671143       -18.2627
   6   1.0000      -0.661362       -17.9966
   7   1.0000      -0.549902       -14.9636
   8   1.0000      -0.461888       -12.5686
   9   1.0000      -0.432355       -11.7650
  10   1.0000      -0.421534       -11.4705
  11   1.0000      -0.386893       -10.5279
  12   1.0000      -0.377635       -10.2760
  13   1.0000      -0.344848        -9.3838
  14   1.0000      -0.339303        -9.2329
  15   1.0000      -0.327868        -8.9218
  16   1.0000      -0.202073        -5.4987
  17   0.0000       0.058585         1.5942
  18   0.0000       0.098057         2.6683
  19   0.0000       0.105778         2.8784
  20   0.0000       0.113273         3.0823
  21   0.0000       0.121988         3.3195

                 SPIN DOWN ORBITALS
  NO   OCC          E(Eh)            E(eV)
   0   1.0000     -10.188697      -277.2485
   1   1.0000     -10.168944      -276.7110
   2   1.0000     -10.167634      -276.6754
   3   1.0000     -10.165544      -276.6185
   4   1.0000      -0.785851       -21.3841
   5   1.0000      -0.669377       -18.2147
   6   1.0000      -0.637548       -17.3486
   7   1.0000      -0.541200       -14.7268
   8   1.0000      -0.457294       -12.4436
   9   1.0000      -0.429606       -11.6902
  10   1.0000      -0.414696       -11.2845
  11   1.0000      -0.384027       -10.4499
  12   1.0000      -0.374210       -10.1828
  13   1.0000      -0.337957        -9.1963
  14   1.0000      -0.334802        -9.1104
  15   1.0000      -0.325590        -8.8598
  16   0.0000      -0.045253        -1.2314
  17   0.0000       0.060140         1.6365
  18   0.0000       0.099531         2.7084
  19   0.0000       0.111475         3.0334
  20   0.0000       0.117075         3.1858

LOEWDIN ATOMIC CHARGES AND SPIN POPULATIONS
-------------------------------------------
   0 C :   -0.160743   -0.012743
   1 C :   -0.221163    0.977706
   2 C :   -0.308838    0.007843
   3 C :   -0.307695    0.050002
   4 H :    0.114191    0.019714
   5 H :    0.113065   -0.025935
   6 H :    0.111735   -0.025649
   7 H :    0.109506   -0.000226
   8 H :    0.109824   -0.000005
   9 H :    0.111504    0.000608
  10 H :    0.109011    0.008473
  11 H :    0.109919    0.000029
  12 H :    0.109684    0.000182

  Mayer bond orders larger than 0.100000
B(  0-C ,  1-C ) :   1.0840 B(  0-C ,  2-C ) :   1.0914 B(  0-C ,  3-C ) :   1.0746
B(  0-C ,  4-H ) :   0.9118 B(  1-C ,  5-H ) :   0.9416 B(  1-C ,  6-H ) :   0.9405
B(  2-C ,  7-H ) :   0.9569 B(  2-C ,  8-H ) :   0.9582 B(  2-C ,  9-H ) :   0.9595
B(  3-C , 10-H ) :   0.9531 B(  3-C , 11-H ) :   0.9589 B(  3-C , 12-H ) :   0.9581

Dispersion correction           -0.014388953
FINAL SINGLE POINT ENERGY      -157.545004547346

DIPOLE MOMENT
-------------
                                X             Y             Z
Electronic contribution:      1.12142      -0.14621       0.65546
Nuclear contribution   :     -1.19765       0.19921      -0.63652
                        -----------------------------------------
Total Dipole Moment    :     -0.07623       0.05300       0.01894
                        -----------------------------------------
Magnitude (a.u.)       :      0.09475
Magnitude (Debye)      :      0.24084

Rotational constants in cm-1:     0.274684     0.261674     0.154947
Rotational constants in MHz :  8234.810675  7844.780650  4645.207192

                             ****ORCA TERMINATED NORMALLY****
TOTAL RUN TIME: 0 days 2 hours 25 minutes 57 seconds 100 msec
