                         Program Version 4.2.1 -  RELEASE  -
|  1> ! UKS B3LYP def2-SV(P) def2/J D3BJ Opt
|  2> %scf Convergence VeryTight
|  3> SmearTemp 2000
|  4> maxiter 500
|  5> end
|  6> *xyz 0 2
|  7> C 0.024603 0.214771 -0.372798
|  8> C -1.024911 0.970544 0.382899
|  9> C 1.381332 0.232782 0.271012
| 10> C -0.37258 -1.246405 -0.453696
| 11> H 0.139795 0.657493 -1.39354
| 12> H -0.989087 0.659953 1.434507
| 13> H -2.012992 0.658537 -0.029407
| 14> H 1.743671 1.243255 0.527407
| 15> H 2.089131 -0.181837 -0.491799
| 16> H 1.45545 -0.419731 1.171073
| 17> H -0.035461 -1.721106 -1.394692
| 18> H -1.47903 -1.373403 -0.426595
| 19> H 0.012885 -1.757647 0.455316
| 20> *
| 21>
| 22>                          ****END OF INPUT****
 Total Charge           Charge          ....    0
 Multiplicity           Mult            ....    2
 Number of Electrons    NEL             ....   33
Dispersion correction           -0.014886098
FINAL SINGLE POINT ENERGY      -157.520477698170
Dispersion correction            ... done
Dispersion correction           -0.014556344
FINAL SINGLE POINT ENERGY      -157.533189947076
Dispersion correction            ... done
Dispersion correction           -0.014434411
FINAL SINGLE POINT ENERGY      -157.538623886092
Dispersion correction            ... done
FINAL SINGLE POINT ENERGY      -157.541344039042
FINAL SINGLE POINT ENERGY      -157.542868582787
FINAL SINGLE POINT ENERGY      -157.543898311748
FINAL SINGLE POINT ENERGY      -157.544581354079
FINAL SINGLE POINT ENERGY      -157.544916666642
FINAL SINGLE POINT ENERGY      -157.544971624587
FINAL SINGLE POINT ENERGY      -157.544985005043
FINAL SINGLE POINT ENERGY      -157.544998020584
Dispersion correction            ... done
Dispersion correction           -0.014384036
FINAL SINGLE POINT ENERGY      -157.545002720674
Dispersion correction            ... done
Dispersion correction           -0.014387247
FINAL SINGLE POINT ENERGY      -157.545006828379
Dispersion correction            ... done
                    ***********************HURRAY********************

CARTESIAN COORDINATES (ANGSTROEM)
---------------------------------
  C     -0.024631    0.114298   -0.327093
  C     -1.029146    0.788315    0.554710
  C      1.402396    0.260224    0.219662
  C     -0.380710   -1.375286   -0.546466
  H     -0.062172    0.598539   -1.324972
  H     -0.833600    0.928482    1.625169
  H     -2.038938    1.004254    0.185950
  H      1.681309    1.323111    0.332383
  H      2.139236   -0.219166   -0.449976
  H      1.489660   -0.218903    1.213241
  H      0.329631   -1.849677   -1.249996
  H     -1.398462   -1.486067   -0.961532
  H     -0.341765   -1.930918    0.408606

 Multiplicity           Mult            ....    2
 Number of Electrons    NEL             ....   33
 Basis Dimension        Dim             ....   74

ORBITAL ENERGIES
----------------
                 SPIN UP ORBITALS
  NO   OCC          E(Eh)            E(eV)
   0   1.0000     -10.187399      -277.2132
   1   1.0000     -10.179539      -276.9993
   2   1.0000     -10.170043      -276.7409
   3   1.0000     -10.167332      -276.6672
   4   1.0000      -0.793139       -21.5824
   5   1.0000      -0.671077       -18.2609
   6   1.0000      -0.661127       -17.9902
   7   1.0000      -0.549751       -14.9595
   8   1.0000      -0.461516       -12.5585
   9   1.0000      -0.432188       -11.7604
  10   1.0000      -0.422120       -11.4865
  11   1.0000      -0.386359       -10.5134
  12   1.0000      -0.377054       -10.2602
  13   1.0000      -0.344843        -9.3836
  14   1.0000      -0.339149        -9.2287
  15   1.0000      -0.327813        -8.9202
  16   1.0000      -0.201470        -5.4823
  17   0.0000       0.059154         1.6096
  18   0.0000       0.098515         2.6807
  19   0.0000       0.105942         2.8828
  20   0.0000       0.113106         3.0778
  21   0.0000       0.122970         3.3462

                 SPIN DOWN ORBITALS
  NO   OCC          E(Eh)            E(eV)
   0   1.0000     -10.188323      -277.2384
   1   1.0000     -10.168573      -276.7009
   2   1.0000     -10.167152      -276.6623
   3   1.0000     -10.164871      -276.6002
   4   1.0000      -0.785769       -21.3819
   5   1.0000      -0.669358       -18.2142
   6   1.0000      -0.637257       -17.3406
   7   1.0000      -0.540972       -14.7206
   8   1.0000      -0.456893       -12.4327
   9   1.0000      -0.429419       -11.6851
  10   1.0000      -0.415358       -11.3025
  11   1.0000      -0.383683       -10.4406
  12   1.0000      -0.373564       -10.1652
  13   1.0000      -0.337941        -9.1958
  14   1.0000      -0.334649        -9.1063
  15   1.0000      -0.325461        -8.8562
  16   0.0000      -0.044634        -1.2146
  17   0.0000       0.060753         1.6532
  18   0.0000       0.099872         2.7177
  19   0.0000       0.111802         3.0423
  20   0.0000       0.116944         3.1822

LOEWDIN ATOMIC CHARGES AND SPIN POPULATIONS
-------------------------------------------
   0 C :   -0.159464   -0.012984
   1 C :   -0.221381    0.978678
   2 C :   -0.308616    0.007155
   3 C :   -0.307376    0.049272
   4 H :    0.113378    0.021251
   5 H :    0.113289   -0.026250
   6 H :    0.111336   -0.025867
   7 H :    0.111574    0.000537
   8 H :    0.109913   -0.000090
   9 H :    0.108999   -0.000151
  10 H :    0.108934    0.008250
  11 H :    0.110007    0.000028
  12 H :    0.109407    0.000170

  Mayer bond orders larger than 0.100000
B(  0-C ,  1-C ) :   1.0829 B(  0-C ,  2-C ) :   1.0922 B(  0-C ,  3-C ) :   1.0758
B(  0-C ,  4-H ) :   0.9107 B(  1-C ,  5-H ) :   0.9416 B(  1-C ,  6-H ) :   0.9405
B(  2-C ,  7-H ) :   0.9601 B(  2-C ,  8-H ) :   0.9585 B(  2-C ,  9-H ) :   0.9564
B(  3-C , 10-H ) :   0.9539 B(  3-C , 11-H ) :   0.9593 B(  3-C , 12-H ) :   0.9575

Dispersion correction           -0.014388242
FINAL SINGLE POINT ENERGY      -157.545008058428

DIPOLE MOMENT
-------------
                                X             Y             Z
Electronic contribution:     -0.79478       1.02325      -0.06280
Nuclear contribution   :      0.81844      -1.08299       0.00162
                        -----------------------------------------
Total Dipole Moment    :      0.02366      -0.05975      -0.06119
                        -----------------------------------------
Magnitude (a.u.)       :      0.08873
Magnitude (Debye)      :      0.22554

Rotational constants in cm-1:     0.274885     0.261784     0.154877
Rotational constants in MHz :  8240.831657  7848.091668  4643.103599

                             ****ORCA TERMINATED NORMALLY****
TOTAL RUN TIME: 0 days 1 hours 59 minutes 30 seconds 717 msec
