                         Program Version 4.2.1 -  RELEASE  -
|  1> ! UKS B3LYP def2-SV(P) def2/J D3BJ Opt
|  2> %scf Convergence VeryTight
|  3> SmearTemp 2000
|  4> maxiter 500
|  5> end
|  6> *xyz 0 2
|  7> C 0.014335 0.133011 0.331503
|  8> C -0.896459 1.134156 -0.320904
|  9> C 1.395599 0.109987 -0.247402
| 10> C -0.539714 -1.273797 0.304892
| 11> H 0.086116 0.436608 1.407166
| 12> H -0.481606 2.138623 -0.100059
| 13> H -1.08879 0.948749 -1.384881
| 14> H 1.565125 0.832498 -1.056706
| 15> H 1.673083 -0.90264 -0.636779
| 16> H 2.162445 0.326202 0.539492
| 17> H -1.345636 -1.412934 -0.433157
| 18> H -0.944143 -1.558993 1.309056
| 19> H 0.265764 -2.009744 0.056049
| 20> *
| 21>
| 22>                          ****END OF INPUT****
 Total Charge           Charge          ....    0
 Multiplicity           Mult            ....    2
 Number of Electrons    NEL             ....   33
Dispersion correction           -0.014556647
FINAL SINGLE POINT ENERGY      -157.518733616047
Dispersion correction            ... done
Dispersion correction           -0.014253354
FINAL SINGLE POINT ENERGY      -157.529730580184
Dispersion correction            ... done
Dispersion correction           -0.014214344
FINAL SINGLE POINT ENERGY      -157.532475259260
Dispersion correction            ... done
FINAL SINGLE POINT ENERGY      -157.534171661141
FINAL SINGLE POINT ENERGY      -157.535355015212
FINAL SINGLE POINT ENERGY      -157.536468339438
FINAL SINGLE POINT ENERGY      -157.537588542411
FINAL SINGLE POINT ENERGY      -157.538669157314
FINAL SINGLE POINT ENERGY      -157.539659925159
FINAL SINGLE POINT ENERGY      -157.540594792060
FINAL SINGLE POINT ENERGY      -157.543320533479
FINAL SINGLE POINT ENERGY      -157.544064314495
FINAL SINGLE POINT ENERGY      -157.544617184292
FINAL SINGLE POINT ENERGY      -157.544928192293
FINAL SINGLE POINT ENERGY      -157.544988610641
FINAL SINGLE POINT ENERGY      -157.544992964918
FINAL SINGLE POINT ENERGY      -157.544997758340
Dispersion correction            ... done
Dispersion correction           -0.014388525
FINAL SINGLE POINT ENERGY      -157.544999940933
Dispersion correction            ... done
Dispersion correction           -0.014388606
FINAL SINGLE POINT ENERGY      -157.545002713340
Dispersion correction            ... done
                    ***********************HURRAY********************

CARTESIAN COORDINATES (ANGSTROEM)
---------------------------------
  C      0.094889    0.145089    0.332020
  C     -0.829886    1.085252   -0.376292
  C      1.486369    0.114813   -0.344936
  C     -0.494969   -1.269739    0.428284
  H      0.250921    0.525820    1.361987
  H     -0.730905    2.169993   -0.247826
  H     -1.490526    0.722220   -1.174133
  H      1.930344    1.125290   -0.394533
  H      1.409071   -0.272347   -1.377626
  H      2.181301   -0.538708    0.215878
  H     -0.662765   -1.691821   -0.580725
  H     -1.464496   -1.262836    0.957045
  H      0.186770   -1.951300    0.969126

 Multiplicity           Mult            ....    2
 Number of Electrons    NEL             ....   33
 Basis Dimension        Dim             ....   74

ORBITAL ENERGIES
----------------
                 SPIN UP ORBITALS
  NO   OCC          E(Eh)            E(eV)
   0   1.0000     -10.187780      -277.2236
   1   1.0000     -10.181167      -277.0436
   2   1.0000     -10.170500      -276.7534
   3   1.0000     -10.167476      -276.6711
   4   1.0000      -0.793359       -21.5884
   5   1.0000      -0.671119       -18.2621
   6   1.0000      -0.661416       -17.9980
   7   1.0000      -0.549925       -14.9642
   8   1.0000      -0.462576       -12.5873
   9   1.0000      -0.432386       -11.7658
  10   1.0000      -0.419992       -11.4286
  11   1.0000      -0.387731       -10.5507
  12   1.0000      -0.378199       -10.2913
  13   1.0000      -0.344561        -9.3760
  14   1.0000      -0.339622        -9.2416
  15   1.0000      -0.327459        -8.9106
  16   1.0000      -0.202435        -5.5085
  17   0.0000       0.059041         1.6066
  18   0.0000       0.097615         2.6562
  19   0.0000       0.106733         2.9044
  20   0.0000       0.113095         3.0775
  21   0.0000       0.123038         3.3480

                 SPIN DOWN ORBITALS
  NO   OCC          E(Eh)            E(eV)
   0   1.0000     -10.188685      -277.2482
   1   1.0000     -10.168999      -276.7125
   2   1.0000     -10.167221      -276.6641
   3   1.0000     -10.166602      -276.6473
   4   1.0000      -0.785934       -21.3864
   5   1.0000      -0.669247       -18.2111
   6   1.0000      -0.637633       -17.3509
   7   1.0000      -0.541333       -14.7304
   8   1.0000      -0.458042       -12.4639
   9   1.0000      -0.429668       -11.6919
  10   1.0000      -0.413021       -11.2389
  11   1.0000      -0.384372       -10.4593
  12   1.0000      -0.375062       -10.2059
  13   1.0000      -0.337803        -9.1921
  14   1.0000      -0.335050        -9.1172
  15   1.0000      -0.325326        -8.8526
  16   0.0000      -0.045738        -1.2446
  17   0.0000       0.060570         1.6482
  18   0.0000       0.099007         2.6941
  19   0.0000       0.112536         3.0623
  20   0.0000       0.116780         3.1777

LOEWDIN ATOMIC CHARGES AND SPIN POPULATIONS
-------------------------------------------
   0 C :   -0.159982   -0.012587
   1 C :   -0.222640    0.977932
   2 C :   -0.307865    0.050533
   3 C :   -0.308168    0.009456
   4 H :    0.113257    0.016737
   5 H :    0.112631   -0.025725
   6 H :    0.112956   -0.025902
   7 H :    0.110266    0.000069
   8 H :    0.109470    0.000134
   9 H :    0.109425    0.008576
  10 H :    0.108952   -0.000300
  11 H :    0.111854    0.000660
  12 H :    0.109844    0.000416

  Mayer bond orders larger than 0.100000
B(  0-C ,  1-C ) :   1.0797 B(  0-C ,  2-C ) :   1.0790 B(  0-C ,  3-C ) :   1.0927
B(  0-C ,  4-H ) :   0.9113 B(  1-C ,  5-H ) :   0.9414 B(  1-C ,  6-H ) :   0.9409
B(  2-C ,  7-H ) :   0.9595 B(  2-C ,  8-H ) :   0.9565 B(  2-C ,  9-H ) :   0.9534
B(  3-C , 10-H ) :   0.9560 B(  3-C , 11-H ) :   0.9591 B(  3-C , 12-H ) :   0.9582

Dispersion correction           -0.014389162
FINAL SINGLE POINT ENERGY      -157.545004219365

DIPOLE MOMENT
-------------
                                X             Y             Z
Electronic contribution:     -0.72060       1.03559       0.30731
Nuclear contribution   :      0.81506      -1.06014      -0.28309
                        -----------------------------------------
Total Dipole Moment    :      0.09445      -0.02455       0.02421
                        -----------------------------------------
Magnitude (a.u.)       :      0.10055
Magnitude (Debye)      :      0.25558

Rotational constants in cm-1:     0.274415     0.261653     0.155148
Rotational constants in MHz :  8226.756654  7844.149111  4651.228452

                             ****ORCA TERMINATED NORMALLY****
TOTAL RUN TIME: 0 days 2 hours 29 minutes 14 seconds 861 msec
